8
time=0.00000000 energy=-1301.56846541 hamiltonian=-1301.56846541 virial="1.20972649       0.21245561       0.35174686       0.21245561       1.04714406       0.23609578       0.35174686       0.23609578       0.92810646" cutoff=-1.00000000 nneightol=1.20000000 pbc="T T T" Lattice="5.01243305      -0.19559845      -0.30746179      -0.15971067       5.78174178      -0.50733439      -0.22659284      -0.38776611       4.97450913" Properties=species:S:1:pos:R:3:Z:I:1:force:R:3
Si              2.72780500      3.99499200      3.96323700      14     -0.36669234     -0.20962358      0.47195740
Si              2.88463400      2.68456000      1.99664000      14     -0.15381949      0.28695412     -0.23185221
Si              3.13910500      0.55060400      3.01697000      14      0.08489555     -0.06552762     -0.19640754
Si              0.00913600      1.46535400      0.01672700      14     -0.04202942     -0.25764414      0.32884520
Si              1.04199300     -0.28524200      3.52364000      14     -0.19393889      0.12459434      0.09345789
Si              0.59032700      3.86928800     -0.46992300      14      0.51227373     -0.18940616     -0.38366213
Si              0.33597000      3.07704500      1.94155200      14      0.09608062      0.25512888      0.01239221
Si              4.30844900      5.23134501      0.81172800      14      0.06323024      0.05552416     -0.09473083
8
time=0.02418884 energy=-1301.56931042 hamiltonian=-1301.56931042 virial="1.18989980       0.21188803       0.34785401       0.21188803       1.02765628       0.23486946       0.34785401       0.23486946       0.90476163" cutoff=-1.00000000 nneightol=1.20000000 pbc="T T T" Lattice="5.01292191      -0.19553335      -0.30734345      -0.15963985       5.78222954      -0.50726512      -0.22647767      -0.38770657       4.97487662" Properties=species:S:1:pos:R:3:Z:I:1:force:R:3
Si              2.72812233      3.99538255      3.96387963      14     -0.36573382     -0.20966407      0.47025694
Si              2.88496858      2.68499223      1.99684040      14     -0.15283500      0.28664943     -0.22937405
Si              3.13954891      0.55074050      3.01722804      14      0.08471443     -0.06507991     -0.19507840
Si              0.00914699      1.46538237      0.01688346      14     -0.04303972     -0.25707982      0.32710395
Si              1.04212015     -0.28513176      3.52397097      14     -0.19241214      0.12466472      0.09295482
Si              0.59063709      3.86955137     -0.47001374      14      0.51085468     -0.18957746     -0.38289884
Si              0.33615100      3.07745315      1.94177554      14      0.09525459      0.25534238      0.01179571
Si              4.30901961      5.23191067      0.81198126      14      0.06319699      0.05474474     -0.09476013
8
time=0.04837769 energy=-1301.60351852 hamiltonian=-1301.60351852 virial="0.17829090       0.18241004       0.14520342       0.18241004       0.03382243       0.17409147       0.14520342       0.17409147      -0.29551061" cutoff=-1.00000000 nneightol=1.20000000 pbc="T T T" Lattice="5.03837027      -0.19208209      -0.30113291      -0.15588358       5.80755910      -0.50357525      -0.22044587      -0.38454837       4.99382730" Properties=species:S:1:pos:R:3:Z:I:1:force:R:3
Si              2.74459409      4.01566821      3.99741230      14     -0.31614704     -0.20855771      0.38347661
Si              2.90238868      2.70763807      2.00721203      14     -0.10339295      0.26891843     -0.10352027
Si              3.16271940      0.55789465      3.03053380      14      0.07468597     -0.04251363     -0.12857185
Si              0.00970410      1.46675160      0.02514125      14     -0.09261425     -0.22700559      0.23841138
Si              1.04871545     -0.27928236      3.54110822      14     -0.11382085      0.12860347      0.06868672
Si              0.60701066      3.88314358     -0.47480513      14      0.43844782     -0.19905209     -0.34526569
Si              0.34566077      3.09881522      1.95338513      14      0.05410398      0.26365941     -0.01807809
Si              4.33882710      5.26138054      0.82519653      14      0.05873731      0.01594773     -0.09513882
8
time=0.07256653 energy=-1301.62451090 hamiltonian=-1301.62451090 virial="0.20236032       0.17872878       0.03984894       0.17872878       0.02784604       0.18508740       0.03984894       0.18508740      -0.31788525" cutoff=-1.00000000 nneightol=1.20000000 pbc="T T T" Lattice="5.04197033      -0.18829893      -0.29764470      -0.15166182       5.80789757      -0.49853843      -0.21773993      -0.38094921       4.98684230" Properties=species:S:1:pos:R:3:Z:I:1:force:R:3
Si              2.74591326      4.01716858      4.00499643      14     -0.27027939     -0.20716916      0.34990268
Si              2.90595840      2.71751602      2.00638349      14     -0.08168703      0.25514271     -0.07988799
Si              3.16913226      0.56194678      3.02634667      14      0.04783881     -0.02386816     -0.10390700
Si              0.00897072      1.46225436      0.03119834      14     -0.10363774     -0.17978664      0.22036349
Si              1.04919981     -0.27307680      3.53835715      14     -0.06047098      0.13453141      0.05353288
Si              0.61945391      3.87967526     -0.47797954      14      0.38079613     -0.21325350     -0.31442161
Si              0.35081509      3.10656176      1.95307832      14      0.03672474      0.25149719     -0.03668345
Si              4.34820354      5.26659615      0.82898276      14      0.05071547     -0.01709384     -0.08889900
8
time=0.09675537 energy=-1301.66496294 hamiltonian=-1301.66496294 virial="0.26644011       0.21791066      -0.10777215       0.21791066       0.06482634       0.16610358      -0.10777215       0.16610358      -0.30677045" cutoff=-1.00000000 nneightol=1.20000000 pbc="T T T" Lattice="5.05257371      -0.17916780      -0.29475092      -0.14089566       5.80828216      -0.48502672      -0.21686029      -0.37138577       4.96849968" Properties=species:S:1:pos:R:3:Z:I:1:force:R:3
Si              2.74741558      4.02106065      4.01824059      14     -0.16851015     -0.20108322      0.27327176
Si              2.91428749      2.74119271      2.00212342      14     -0.03889817      0.22853233     -0.03621953
Si              3.18093469      0.57313573      3.01295343      14      0.00150383      0.00653581     -0.07143549
Si              0.00645672      1.45347333      0.04533058      14     -0.10347544     -0.09156448      0.16746298
Si              1.04936883     -0.25698106      3.52864860      14      0.03468153      0.15103326      0.04732535
Si              0.64786781      3.86999630     -0.48426996      14      0.25480113     -0.23113463     -0.25075212
Si              0.36043424      3.12514015      1.95091629      14     -0.00058989      0.21941251     -0.07682410
Si              4.37099207      5.27734927      0.83416956      14      0.02048716     -0.08173158     -0.05282885
8
time=0.12094422 energy=-1301.69828664 hamiltonian=-1301.69828664 virial="0.14161314       0.27315927      -0.08790469       0.27315927       0.04617680       0.12918965      -0.08790469       0.12918965      -0.24059702" cutoff=-1.00000000 nneightol=1.20000000 pbc="T T T" Lattice="5.06964700      -0.16594960      -0.30089950      -0.12446589       5.81148463      -0.47023674      -0.22580183      -0.36164030       4.94809441" Properties=species:S:1:pos:R:3:Z:I:1:force:R:3
Si              2.75171743      4.02826117      4.02339509      14     -0.11898464     -0.18964906      0.21464924
Si              2.92667554      2.76964772      1.99402887      14     -0.01640671      0.20108546     -0.01628266
Si              3.18906229      0.58921277      2.99348307      14     -0.02085925      0.02119642     -0.07226732
Si              0.00407485      1.44919135      0.05828745      14     -0.07761280     -0.06169163      0.11686088
Si              1.04936411     -0.23744861      3.51546031      14      0.09041955      0.16039850      0.08282707
Si              0.67706368      3.85973312     -0.48993035      14      0.18007801     -0.20878995     -0.21592943
Si              0.36764555      3.14616175      1.94493473      14     -0.02527331      0.18127825     -0.10531520
Si              4.40054883      5.29043906      0.83310725      14     -0.01136084     -0.10382798     -0.00454258
8
time=0.14513306 energy=-1301.74480082 hamiltonian=-1301.74480082 virial="0.19104488       0.28907162      -0.16512036       0.28907162       0.07873442       0.10453919      -0.16512036       0.10453919       0.07640855" cutoff=-1.00000000 nneightol=1.20000000 pbc="T T T" Lattice="5.08646409      -0.13314954      -0.31069869      -0.08439521       5.81506637      -0.44780142      -0.24052725      -0.34742069       4.91695970" Properties=species:S:1:pos:R:3:Z:I:1:force:R:3
Si              2.76429786      4.04153613      4.03035838      14     -0.03740999     -0.14805305      0.16638999
Si              2.94926987      2.82232707      1.98302698      14     -0.01475442      0.14763617     -0.01566002
Si              3.19448370      0.62324560      2.96176117      14     -0.01981520      0.08045207     -0.05598042
Si              0.00431218      1.44360850      0.07606901      14     -0.07713613     -0.02867100      0.09515788
Si              1.05439200     -0.19985933      3.50058368      14      0.14858101      0.11648701      0.10749855
Si              0.72781446      3.84191801     -0.50083256      14      0.06979087     -0.16772559     -0.16906085
Si              0.38308834      3.17940289      1.93079819      14     -0.03643002      0.10755438     -0.14887212
Si              4.44783793      5.31569376      0.83518317      14     -0.03282612     -0.10767998      0.02052697
8
time=0.16932190 energy=-1301.76914680 hamiltonian=-1301.76914680 virial="-0.38069599       0.32512944      -0.07699594       0.32512944      -0.26935829      -0.09330456      -0.07699594      -0.09330456      -0.46051200" cutoff=-1.00000000 nneightol=1.20000000 pbc="T T T" Lattice="5.10354661      -0.10758523      -0.32678139      -0.05260598       5.82112340      -0.43672451      -0.25902323      -0.33941714       4.92392362" Properties=species:S:1:pos:R:3:Z:I:1:force:R:3
Si              2.77786527      4.05613441      4.04945677      14     -0.06418631     -0.14691798      0.11152826
Si              2.96656157      2.85796464      1.98139942      14     -0.03197032      0.15771300      0.02986765
Si              3.19722259      0.65331757      2.95291229      14     -0.00181528      0.07091731     -0.06092208
Si              0.00467534      1.44305165      0.08703615      14     -0.05394937     -0.08205880      0.05799219
Si              1.05906177     -0.17693704      3.51116193      14      0.14079904      0.10656543      0.13875137
Si              0.75789962      3.83476701     -0.51079659      14      0.07739845     -0.12836251     -0.18138016
Si              0.39197301      3.19828943      1.92623371      14     -0.03287251      0.07706722     -0.13414522
Si              4.48456816      5.33762578      0.83493534      14     -0.03340371     -0.05492367      0.03830798
8
time=0.19351075 energy=-1301.77669188 hamiltonian=-1301.77669188 virial="0.05975591       0.31705117      -0.13221895       0.31705117       0.09412682      -0.02053044      -0.13221895      -0.02053044       0.03513673" cutoff=-1.00000000 nneightol=1.20000000 pbc="T T T" Lattice="5.09351536      -0.09879535      -0.32792175      -0.04222121       5.81297545      -0.43801129      -0.26137044      -0.34155572       4.91227044" Properties=species:S:1:pos:R:3:Z:I:1:force:R:3
Si              2.77582957      4.04962558      4.03951061      14     -0.04216727     -0.12930098      0.13711001
Si              2.96413748      2.86179290      1.97509808      14     -0.03523654      0.13578600     -0.00982892
Si              3.19076695      0.65809148      2.94288804      14     -0.02355663      0.09422258     -0.05857075
Si              0.00569615      1.43895600      0.08756724      14     -0.05900350     -0.05537192      0.09935727
Si              1.05863397     -0.17368432      3.50562826      14      0.16085623      0.09241801      0.11977021
Si              0.76512889      3.82766972     -0.51575106      14      0.04918125     -0.13803741     -0.16586257
Si              0.39514068      3.19532503      1.91703221      14     -0.02951097      0.05664837     -0.14176044
Si              4.48375496      5.33579909      0.82989631      14     -0.02056257     -0.05636464      0.01978520
8
time=0.21769959 energy=-1301.78219726 hamiltonian=-1301.78219726 virial="0.00352757       0.31553089      -0.13938004       0.31553089       0.03895194      -0.02807021      -0.13938004      -0.02807021      -0.03741403" cutoff=-1.00000000 nneightol=1.20000000 pbc="T T T" Lattice="5.09459991      -0.09183004      -0.33088524      -0.03371569       5.81508140      -0.43847249      -0.26505246      -0.34248308       4.91322475" Properties=species:S:1:pos:R:3:Z:I:1:force:R:3
Si              2.77847393      4.05181062      4.04103117      14     -0.04393494     -0.12403626      0.13330718
Si              2.96687469      2.86957127      1.97337504      14     -0.03643370      0.12765112     -0.00496159
Si              3.19003416      0.66439110      2.94032708      14     -0.02370469      0.10217177     -0.05754925
Si              0.00633027      1.43829501      0.08949721      14     -0.05850972     -0.05879356      0.09747796
Si              1.05990195     -0.17045221      3.50805396      14      0.16353356      0.08637918      0.12009402
Si              0.77200983      3.82719381     -0.52001447      14      0.04581383     -0.13528848     -0.16345686
Si              0.39795562      3.19797587      1.91400883      14     -0.03029900      0.05084066     -0.14303717
Si              4.49117375      5.34260160      0.82746147      14     -0.01646533     -0.04892443      0.01812571
8
time=0.24188843 energy=-1301.78689085 hamiltonian=-1301.78689085 virial="0.00419831       0.31118512      -0.13988641       0.31118512       0.04443989      -0.03113484      -0.13988641      -0.03113484      -0.03990822" cutoff=-1.00000000 nneightol=1.20000000 pbc="T T T" Lattice="5.09445295      -0.08571963      -0.33351647      -0.02626272       5.81567619      -0.43886802      -0.26835673      -0.34334052       4.91263491" Properties=species:S:1:pos:R:3:Z:I:1:force:R:3
Si              2.78002354      4.05283734      4.04094617      14     -0.04376646     -0.12002614      0.13177056
Si              2.96854699      2.87554051      1.97123450      14     -0.03806212      0.12166051     -0.00544369
Si              3.18862925      0.66982086      2.93715068      14     -0.02556478      0.10781492     -0.05740137
Si              0.00688252      1.43733735      0.09109008      14     -0.05665187     -0.05872085      0.09847059
Si              1.06071944     -0.16778007      3.50911314      14      0.16595944      0.08248123      0.11954347
Si              0.77780210      3.82602131     -0.52363795      14      0.04161136     -0.13392971     -0.16056693
Si              0.40026347      3.19944189      1.91071053      14     -0.03038231      0.04418199     -0.14419976
Si              4.49673905      5.34750848      0.82482849      14     -0.01314326     -0.04346194      0.01782713
8
time=0.26607728 energy=-1301.84027198 hamiltonian=-1301.84027198 virial="0.03328485       0.04870384       0.07842512       0.04870384       0.12695802      -0.06599973       0.07842512      -0.06599973       0.04495315" cutoff=-1.00000000 nneightol=1.20000000 pbc="T T T" Lattice="5.09254361      -0.00197240      -0.37015537       0.07601169       5.82571489      -0.44519167      -0.31434327      -0.35614004       4.90379617" Properties=species:S:1:pos:R:3:Z:I:1:force:R:3
Si              2.79977964      4.06757311      4.03822995      14     -0.02475955     -0.06501551      0.07807411
Si              2.99125684      2.95664502      1.94056842      14     -0.06809710      0.05441151     -0.00311731
Si              3.16916696      0.74564489      2.89250586      14     -0.04590355      0.16210063     -0.04348367
Si              0.01419222      1.42409365      0.11334446      14     -0.02892824     -0.03997360      0.08940923
Si              1.07282040     -0.13169244      3.52270118      14      0.17067363      0.04554316      0.09673088
Si              0.85607097      3.81123330     -0.57374352      14     -0.01632835     -0.11344190     -0.11688851
Si              0.43200808      3.21855479      1.86388911      14     -0.01146023     -0.06943544     -0.14609717
Si              4.57361873      5.41738373      0.78717312      14      0.02480340      0.02581114      0.04537244
8
time=0.29026612 energy=-1301.86203276 hamiltonian=-1301.86203276 virial="-0.60019644       0.27765356      -0.48490278       0.27765356      -0.39534676      -0.04349110      -0.48490278      -0.04349110      -0.85705055" cutoff=-1.00000000 nneightol=1.20000000 pbc="T T T" Lattice="5.09865069       0.00800790      -0.35078189       0.08670881       5.86175621      -0.46615879      -0.29650726      -0.37510420       4.91553306" Properties=species:S:1:pos:R:3:Z:I:1:force:R:3
Si              2.82087535      4.06784736      4.06187276      14     -0.01971271      0.01832256      0.10479631
Si              2.99470763      2.98403232      1.94670245      14     -0.03305175      0.07358397     -0.00751936
Si              3.17925556      0.78212116      2.90072966      14      0.17617001      0.15650801      0.06024035
Si              0.00975902      1.42272574      0.12824179      14     -0.06062292     -0.09029125     -0.12713823
Si              1.12776912     -0.12841475      3.55623287      14     -0.03253878     -0.06182424      0.09818365
Si              0.85786919      3.81040516     -0.61069011      14     -0.02644989     -0.04155574     -0.14480591
Si              0.44348962      3.21548731      1.82690256      14     -0.05054035      0.04414337     -0.10616231
Si              4.60091144      5.46118116      0.79831011      14      0.04674639     -0.09888667      0.12240549
8
time=0.31445496 energy=-1301.87138117 hamiltonian=-1301.87138117 virial="0.11806166       0.13352800      -0.20693718       0.13352800       0.23606435       0.02202989      -0.20693718       0.02202989       0.16048355" cutoff=-1.00000000 nneightol=1.20000000 pbc="T T T" Lattice="5.08253845       0.01641966      -0.36255904       0.09813505       5.84893939      -0.46389294      -0.30993932      -0.37567206       4.89246605" Properties=species:S:1:pos:R:3:Z:I:1:force:R:3
Si              2.80672931      4.06312966      4.03748524      14     -0.00585926     -0.00098038      0.11614016
Si              2.98380667      2.98379273      1.92931834      14     -0.03896158      0.08482767     -0.05928087
Si              3.16680163      0.78955781      2.87972481      14      0.03385643      0.10910045      0.01633483
Si              0.01017069      1.41701861      0.12452044      14     -0.01643424     -0.06042194     -0.00145888
Si              1.11275575     -0.12860507      3.53842666      14      0.05498709     -0.02030638      0.05722628
Si              0.86276062      3.80225949     -0.61341616      14     -0.03981353     -0.05462475     -0.11623863
Si              0.44142487      3.20973307      1.81441895      14     -0.04390629     -0.00764926     -0.11677421
Si              4.59388377      5.45397317      0.78546407      14      0.05613138     -0.04994541      0.10405131
8
time=0.33864381 energy=-1301.87417642 hamiltonian=-1301.87417642 virial="-0.07664743       0.09980896      -0.10436250       0.09980896       0.06730500      -0.01816721      -0.10436250      -0.01816721      -0.02640797" cutoff=-1.00000000 nneightol=1.20000000 pbc="T T T" Lattice="5.08541113       0.01918603      -0.36786166       0.10223963       5.85528810      -0.46329169      -0.31546310      -0.37569089       4.89658261" Properties=species:S:1:pos:R:3:Z:I:1:force:R:3
Si              2.80612658      4.06953494      4.04123922      14     -0.01562351     -0.01370084      0.08725312
Si              2.98433979      2.99080019      1.92717214      14     -0.04267836      0.08586473     -0.02603990
Si              3.16681781      0.79513377      2.87939551      14      0.00961229      0.09590004     -0.00050113
Si              0.01039750      1.41711437      0.12482954      14     -0.00064796     -0.07136341      0.01086914
Si              1.11072961     -0.12808318      3.54134468      14      0.07242862     -0.00370961      0.06033832
Si              0.86515892      3.80538865     -0.61663444      14     -0.02903036     -0.05290013     -0.11604060
Si              0.44070275      3.21336706      1.81343566      14     -0.04258926     -0.01746723     -0.11892282
Si              4.59979741      5.46146355      0.78481214      14      0.04852854     -0.02262354      0.10304387
8
time=0.36283265 energy=-1301.87664945 hamiltonian=-1301.87664945 virial="-0.03851878       0.07718052      -0.06007710       0.07718052       0.07585195      -0.01942682      -0.06007710      -0.01942682       0.00990120" cutoff=-1.00000000 nneightol=1.20000000 pbc="T T T" Lattice="5.08320127       0.02182052      -0.37067445       0.10593258       5.85726873      -0.46355151      -0.31857911      -0.37643641       4.89596007" Properties=species:S:1:pos:R:3:Z:I:1:force:R:3
Si              2.80414878      4.07151374      4.04098748      14     -0.01069618     -0.01702187      0.07927669
Si              2.98254074      2.99529663      1.92441904      14     -0.04379263      0.08129676     -0.01741129
Si              3.16445265      0.79932495      2.87709429      14     -0.00573710      0.09422918     -0.00962026
Si              0.01095873      1.41565265      0.12498929      14      0.00543551     -0.06933278      0.02739811
Si              1.10980931     -0.12780630      3.54159874      14      0.08183028      0.00234263      0.05605668
Si              0.86654812      3.80559472     -0.62011790      14     -0.03192952     -0.05424136     -0.11194377
Si              0.44015634      3.21385319      1.80976076      14     -0.04060542     -0.02753081     -0.12045559
Si              4.60149274      5.46502894      0.78437537      14      0.04549505     -0.00974175      0.09669944
8
time=0.38702149 energy=-1301.88133291 hamiltonian=-1301.88133291 virial="-0.04847720       0.05614820      -0.02763798       0.05614820       0.05240018      -0.02656456      -0.02763798      -0.02656456      -0.02268199" cutoff=-1.00000000 nneightol=1.20000000 pbc="T T T" Lattice="5.08077438       0.02596590      -0.37407672       0.11165011       5.86207717      -0.46462021      -0.32242036      -0.37806390       4.89673241" Properties=species:S:1:pos:R:3:Z:I:1:force:R:3
Si              2.80259251      4.07511021      4.04305042      14     -0.00610899     -0.01892477      0.06784032
Si              2.98026001      3.00393028      1.92135656      14     -0.04497289      0.07207908     -0.00107671
Si              3.16150572      0.80707714      2.87472373      14     -0.01353122      0.09509122     -0.01501483
Si              0.01208954      1.41291662      0.12615463      14      0.00850778     -0.06767892      0.03726474
Si              1.11094559     -0.12723431      3.54406519      14      0.08682249      0.00725705      0.05164698
Si              0.86819092      3.80616960     -0.62722632      14     -0.03274489     -0.05276902     -0.10838273
Si              0.43932181      3.21453297      1.80286058      14     -0.03721955     -0.03843027     -0.12006787
Si              4.60585079      5.47256762      0.78552331      14      0.03924727      0.00337562      0.08779010
8
time=0.41121034 energy=-1301.88930886 hamiltonian=-1301.88930886 virial="0.01796110       0.05065089      -0.04499153       0.05065089       0.12884673      -0.01131527      -0.04499153      -0.01131527       0.03134762" cutoff=-1.00000000 nneightol=1.20000000 pbc="T T T" Lattice="5.07522431       0.03163667      -0.37668007       0.11934484       5.86834977      -0.46737672      -0.32578330      -0.38158292       4.89456987" Properties=species:S:1:pos:R:3:Z:I:1:force:R:3
Si              2.80090874      4.07793621      4.04397500      14     -0.00247161     -0.01205883      0.06945933
Si              2.97544758      3.01609287      1.91732507      14     -0.04320825      0.05769453      0.00035092
Si              3.15654356      0.81935259      2.86977668      14     -0.00789654      0.09801919     -0.00844021
Si              0.01393708      1.40736969      0.12890400      14      0.00531399     -0.06020864      0.03514529
Si              1.11604607     -0.12657872      3.54645736      14      0.07984801      0.00436669      0.04331374
Si              0.86892883      3.80539067     -0.63976422      14     -0.03258957     -0.04589204     -0.10140050
Si              0.43788809      3.21274904      1.78849128      14     -0.03355023     -0.04496188     -0.11668033
Si              4.61088825      5.48334340      0.78826772      14      0.03455419      0.00304097      0.07825176
8
time=0.43539918 energy=-1301.89220830 hamiltonian=-1301.89220830 virial="-0.08897333       0.04933766      -0.03164157       0.04933766       0.04980409      -0.02533177      -0.03164157      -0.02533177      -0.08073321" cutoff=-1.00000000 nneightol=1.20000000 pbc="T T T" Lattice="5.07590040       0.03336279      -0.37863231       0.12199348       5.87457900      -0.46791859      -0.32794695      -0.38258205       4.89603152" Properties=species:S:1:pos:R:3:Z:I:1:force:R:3
Si              2.80103006      4.08222393      4.04648621      14     -0.00926990     -0.01213740      0.06061516
Si              2.97466609      3.02226574      1.91665348      14     -0.04263171      0.05591382      0.01181159
Si              3.15610627      0.82500109      2.86906464      14     -0.00753148      0.09127112     -0.00943653
Si              0.01442016      1.40635891      0.13018337      14      0.00986069     -0.06567382      0.02873555
Si              1.11794462     -0.12620148      3.54860355      14      0.07780917      0.00700774      0.04466210
Si              0.86946125      3.80764872     -0.64441603      14     -0.02567665     -0.04102842     -0.09993994
Si              0.43713414      3.21403091      1.78409545      14     -0.03428042     -0.04304784     -0.11660114
Si              4.61466870      5.49079490      0.78945553      14      0.03172030      0.00769480      0.08015320
8
time=0.45958802 energy=-1301.89374866 hamiltonian=-1301.89374866 virial="-0.02922797       0.04624371      -0.03273750       0.04624371       0.09468315      -0.01671378      -0.03273750      -0.01671378      -0.02046083" cutoff=-1.00000000 nneightol=1.20000000 pbc="T T T" Lattice="5.07376313       0.03444071      -0.37923216       0.12357562       5.87587920      -0.46832537      -0.32873634      -0.38330720       4.89418160" Properties=species:S:1:pos:R:3:Z:I:1:force:R:3
Si              2.79993027      4.08287639      4.04536030      14     -0.00617926     -0.00998333      0.06335239
Si              2.97299743      3.02444779      1.91545213      14     -0.04143001      0.05363590      0.00780275
Si              3.15449185      0.82752125      2.86720899      14     -0.01010132      0.09057800     -0.00992494
Si              0.01482884      1.40517675      0.13058023      14      0.01054036     -0.06314684      0.03269145
Si              1.11855454     -0.12609138      3.54794098      14      0.07751383      0.00609892      0.04133254
Si              0.86960509      3.80768924     -0.64676260      14     -0.02825143     -0.04052351     -0.09676632
Si              0.43671064      3.21350639      1.78056386      14     -0.03441474     -0.04410968     -0.11668203
Si              4.61465404      5.49303092      0.78960182      14      0.03232257      0.00745053      0.07819417
8
time=0.48377687 energy=-1301.89529233 hamiltonian=-1301.89529233 virial="-0.03420767       0.04472293      -0.03304233       0.04472293       0.09179319      -0.01616310      -0.03304233      -0.01616310      -0.02822865" cutoff=-1.00000000 nneightol=1.20000000 pbc="T T T" Lattice="5.07299365       0.03538596      -0.37996976       0.12501553       5.87846926      -0.46866805      -0.32961838      -0.38393514       4.89372860" Properties=species:S:1:pos:R:3:Z:I:1:force:R:3
Si              2.79951224      4.08455854      4.04563186      14     -0.00648308     -0.00891545      0.06231029
Si              2.97202488      3.02729596      1.91480954      14     -0.04067814      0.05195573      0.00908733
Si              3.15363523      0.83031514      2.86617088      14     -0.00984273      0.08877224     -0.00964633
Si              0.01521859      1.40431113      0.13117386      14      0.01124433     -0.06361164      0.03171536
Si              1.11952269     -0.12591873      3.54825084      14      0.07604668      0.00597234      0.04021012
Si              0.86978523      3.80849785     -0.64918516      14     -0.02747599     -0.03881026     -0.09521173
Si              0.43626537      3.21367971      1.77754918      14     -0.03465912     -0.04353775     -0.11617751
Si              4.61575715      5.49641005      0.79015955      14      0.03184805      0.00817479      0.07771247
8
time=0.50796571 energy=-1301.90504666 hamiltonian=-1301.90504666 virial="-0.03066952       0.03953105      -0.03129548       0.03953105       0.12382497      -0.00614221      -0.03129548      -0.00614221      -0.03967355" cutoff=-1.00000000 nneightol=1.20000000 pbc="T T T" Lattice="5.06703153       0.04152242      -0.38492537       0.13447757       5.89533080      -0.47072041      -0.33555451      -0.38801537       4.88938593" Properties=species:S:1:pos:R:3:Z:I:1:force:R:3
Si              2.79602157      4.09560686      4.04625705      14     -0.00514537     -0.00244594      0.05850464