8
time=0.00000000 energy=-1303.03287271 hamiltonian=-1303.03287271 virial="1.94117293       0.29578244       0.09865901       0.29578244       0.96065470      -0.28752360       0.09865901      -0.28752360       1.95304963" cutoff=-1.00000000 nneightol=1.20000000 pbc="T T T" Lattice="5.68178668      -1.16471486      -0.45772610      -1.11307289       4.71150094       1.07454185      -0.37383920       1.22608538       5.67275456" Properties=species:S:1:pos:R:3:Z:I:1:force:R:3
Si              4.03123900      2.43658800      1.47055200      14      0.05877330     -0.02489779      0.01176644
Si              0.64310800      0.09514300      2.52010100      14     -0.00805783     -0.06406501      0.02669663
Si              2.01678300      3.85188000      1.68352900      14     -0.01128391      0.06667669     -0.07556179
Si              0.23007500      2.72919000      4.76737301      14     -0.03088086      0.01319371      0.07302402
Si              0.33527900      2.23382500      1.32369200      14      0.07314986      0.06052733      0.02850745
Si              4.72468700     -0.52222300      3.72276700      14     -0.03190163     -0.04649868     -0.02290798
Si              2.98658900      0.62963300      2.59466100      14      0.02651829     -0.03282333     -0.04294756
Si              2.84047300      0.76438600     -1.08180900      14     -0.07631724      0.02788709      0.00142279
8
time=0.02418884 energy=-1303.03333175 hamiltonian=-1303.03333175 virial="1.91973357       0.29490640       0.09828535       0.29490640       0.94171530      -0.28665048       0.09828535      -0.28665048       1.93161639" cutoff=-1.00000000 nneightol=1.20000000 pbc="T T T" Lattice="5.68233145      -1.16467936      -0.45772602      -1.11310674       4.71170001       1.07457432      -0.37382913       1.22605652       5.67330189" Properties=species:S:1:pos:R:3:Z:I:1:force:R:3
Si              4.03169747      2.43674155      1.47068625      14      0.05865007     -0.02490124      0.01195229
Si              0.64318425      0.09510564      2.52036098      14     -0.00818019     -0.06397269      0.02665293
Si              2.01704771      3.85209050      1.68363352      14     -0.01163740      0.06658891     -0.07605312
Si              0.23015621      2.72926057      4.76782746      14     -0.03053394      0.01309366      0.07342606
Si              0.33536960      2.23393434      1.32379971      14      0.07361005      0.06057711      0.02815863
Si              4.72516019     -0.52224259      3.72316559      14     -0.03187281     -0.04633811     -0.02301060
Si              2.98691456      0.62966348      2.59491645      14      0.02666017     -0.03266061     -0.04286898
Si              2.84074395      0.76448893     -1.08191376      14     -0.07669593      0.02761296      0.00174278
8
time=0.04837769 energy=-1303.05313266 hamiltonian=-1303.05313266 virial="0.27139963       0.22672774       0.07046794       0.22672774      -0.50890497      -0.21790606       0.07046794      -0.21790606       0.28341374" cutoff=-1.00000000 nneightol=1.20000000 pbc="T T T" Lattice="5.72517368      -1.16178827      -0.45769300      -1.11572068       4.72718014       1.07708200      -0.37300881       1.22368776       5.71634912" Properties=species:S:1:pos:R:3:Z:I:1:force:R:3
Si              4.06780886      2.44875771      1.48124494      14      0.04959040     -0.02579437      0.02703064
Si              0.64918399      0.09212958      2.54082435      14     -0.01894586     -0.05703054      0.02343416
Si              2.03790368      3.86854153      1.69178953      14     -0.03746331      0.06027648     -0.11231091
Si              0.23658110      2.73467670      4.80358756      14     -0.00451761      0.00584956      0.10318522
Si              0.34255791      2.24246928      1.33225635      14      0.10762953      0.06429611      0.00238609
Si              4.76237730     -0.52376523      3.75453185      14     -0.02963752     -0.03454643     -0.03196677
Si              3.01254947      0.63204039      2.61500259      14      0.03845692     -0.02031280     -0.03690629
Si              2.86202933      0.77259879     -1.09014904      14     -0.10511255      0.00726200      0.02514787
8
time=0.07256653 energy=-1303.05648006 hamiltonian=-1303.05648006 virial="0.20636499       0.15068574       0.04595394       0.15068574      -0.29056037      -0.14262753       0.04595394      -0.14262753       0.21651365" cutoff=-1.00000000 nneightol=1.20000000 pbc="T T T" Lattice="5.73034602      -1.15351675      -0.45550374      -1.11220281       4.71512292       1.07373677      -0.37060360       1.21556551       5.72180673" Properties=species:S:1:pos:R:3:Z:I:1:force:R:3
Si              4.07603948      2.44556613      1.48246573      14      0.04329464     -0.02234441      0.01790150
Si              0.65037405      0.08916676      2.54434740      14     -0.00802527     -0.04863785      0.02226236
Si              2.04360458      3.86186201      1.68871187      14     -0.02721335      0.05602971     -0.10400502
Si              0.24073988      2.72485199      4.80875966      14     -0.01186724      0.00262911      0.09377099
Si              0.34749942      2.23804728      1.33192681      14      0.09968713      0.05453276      0.00879409
Si              4.76773626     -0.52221893      3.76017163      14     -0.02707394     -0.03232367     -0.02017734
Si              3.01800793      0.63079071      2.61766140      14      0.02766570     -0.01788981     -0.03414537
Si              2.86363246      0.77477017     -1.09080728      14     -0.09646767      0.00800415      0.01559878
8
time=0.09675537 energy=-1303.06056405 hamiltonian=-1303.06056405 virial="0.02069857       0.02156957       0.00206632       0.02156957      -0.00454822      -0.01690887       0.00206632      -0.01690887       0.02533264" cutoff=-1.00000000 nneightol=1.20000000 pbc="T T T" Lattice="5.74153481      -1.13894137      -0.45170936      -1.10606528       4.69552337       1.06805307      -0.36634560       1.20142992       5.73368870" Properties=species:S:1:pos:R:3:Z:I:1:force:R:3
Si              4.09290438      2.44079694      1.48520759      14      0.02853126     -0.01494357      0.00472377
Si              0.65295671      0.08328241      2.55199556      14      0.00715104     -0.02946266      0.01909527
Si              2.05454794      3.85253620      1.68207260      14     -0.00002493      0.04459863     -0.07918230
Si              0.24794809      2.70828701      4.82120972      14     -0.02883000     -0.00536324      0.06980488
Si              0.35819824      2.23177305      1.33217251      14      0.07677725      0.02995977      0.02467219
Si              4.77854096     -0.52004306      3.77172811      14     -0.02048875     -0.02560178     -0.00212310
Si              3.02901263      0.62868891      2.62285392      14      0.01068514     -0.01046064     -0.02715347
Si              2.86600459      0.77929214     -1.09243687      14     -0.07380101      0.01127350     -0.00983725
8
time=0.12094422 energy=-1303.06220800 hamiltonian=-1303.06220800 virial="0.00471009       0.01524533       0.00634111       0.01524533      -0.01195060      -0.01380493       0.00634111      -0.01380493       0.00720910" cutoff=-1.00000000 nneightol=1.20000000 pbc="T T T" Lattice="5.74270534      -1.13718678      -0.45144853      -1.10500862       4.69468947       1.06733751      -0.36594547       1.20001077       5.73525696" Properties=species:S:1:pos:R:3:Z:I:1:force:R:3
Si              4.09639817      2.44059253      1.48555459      14      0.02145762     -0.00971438      0.00275203
Si              0.65363758      0.08118562      2.55396980      14      0.00638722     -0.01876571      0.01841913
Si              2.05622044      3.85512481      1.67707440      14      0.02243817      0.03541681     -0.05242266
Si              0.24719222      2.70678255      4.82634008      14     -0.04122847     -0.00921765      0.04718584
Si              0.36355699      2.23320994      1.33359291      14      0.05197520      0.01283542      0.03713179
Si              4.77851437     -0.52100615      3.77306523      14     -0.01532186     -0.02029252     -0.00055894
Si              3.03068341      0.62832584      2.62202518      14      0.00649443     -0.00601271     -0.02196497
Si              2.86253977      0.78089563     -1.09348384      14     -0.05220231      0.01575075     -0.03054223
8
time=0.14513306 energy=-1303.06403682 hamiltonian=-1303.06403682 virial="0.01826299      -0.00237330      -0.00925050      -0.00237330       0.02716046       0.00619167      -0.00925050       0.00619167       0.01975500" cutoff=-1.00000000 nneightol=1.20000000 pbc="T T T" Lattice="5.74283254      -1.13466409      -0.45029199      -1.10326133       4.69258954       1.06580556      -0.36469143       1.19768054       5.73574907" Properties=species:S:1:pos:R:3:Z:I:1:force:R:3
Si              4.10026269      2.43985566      1.48592177      14      0.01746037     -0.00270602      0.00167513
Si              0.65479954      0.07857574      2.55648025      14      0.00635607     -0.01159228      0.01440514
Si              2.06054420      3.85801067      1.67066667      14      0.02928170      0.02498646     -0.03414040
Si              0.24444820      2.70347282      4.83140539      14     -0.04153767     -0.01002519      0.02869941
Si              0.37027474      2.23363442      1.33717231      14      0.03318594      0.00319870      0.03875280
Si              4.77771097     -0.52252957      3.77452125      14     -0.01456916     -0.01210052      0.00161484
Si              3.03231775      0.62776691      2.62032066      14      0.00403324     -0.00428661     -0.01601858
Si              2.85729749      0.78368661     -1.09684132      14     -0.03421048      0.01252546     -0.03498834
8
time=0.16932190 energy=-1303.06514420 hamiltonian=-1303.06514420 virial="-0.11296690       0.01473581       0.02484139       0.01473581      -0.11809507      -0.02354817       0.02484139      -0.02354817      -0.11659975" cutoff=-1.00000000 nneightol=1.20000000 pbc="T T T" Lattice="5.74562703      -1.13590267      -0.45203752      -1.10432395       4.69609792       1.06735994      -0.36626603       1.19945480       5.73885766" Properties=species:S:1:pos:R:3:Z:I:1:force:R:3
Si              4.10365625      2.44123117      1.48630435      14      0.01511419     -0.00256477      0.00239024
Si              0.65523383      0.07767294      2.55929487      14     -0.00149766     -0.00650680      0.01838715
Si              2.06426841      3.86372658      1.66764526      14      0.02138906      0.01755031     -0.02701102
Si              0.23841332      2.70490195      4.83752130      14     -0.02365332     -0.00763104      0.03240219
Si              0.37386961      2.23573831      1.34264233      14      0.02748642      0.00471226      0.02160895
Si              4.77733538     -0.52399362      3.77537895      14     -0.00788296     -0.01257536     -0.00459674
Si              3.03351056      0.62795658      2.61914514      14      0.00312542     -0.00044199     -0.01595479
Si              2.85481256      0.78528921     -1.10202373      14     -0.03408116      0.00745739     -0.02722599
8
time=0.19351075 energy=-1303.06543425 hamiltonian=-1303.06543425 virial="0.03016625       0.00272562       0.00576061       0.00272562       0.03467284      -0.00330077       0.00576061      -0.00330077       0.03034403" cutoff=-1.00000000 nneightol=1.20000000 pbc="T T T" Lattice="5.74217385      -1.13468212      -0.45088420      -1.10316264       4.69297558       1.06597986      -0.36522131       1.19796924       5.73525377" Properties=species:S:1:pos:R:3:Z:I:1:force:R:3
Si              4.10205163      2.43981184      1.48569471      14      0.01492371     -0.00133250      0.00024736
Si              0.65515545      0.07720385      2.55829167      14      0.00354216     -0.00701370      0.01510409
Si              2.06412898      3.86171569      1.66577760      14      0.02193806      0.01716133     -0.02515793
Si              0.23855682      2.70245922      4.83510850      14     -0.02772670     -0.00734643      0.02468131
Si              0.37466989      2.23433116      1.34212239      14      0.02449141      0.00347246      0.02641716
Si              4.77483966     -0.52404841      3.77371506      14     -0.01098872     -0.01045048      0.00025381
Si              3.03222871      0.62748009      2.61752130      14      0.00162528     -0.00179646     -0.01500491
Si              2.85228425      0.78534259     -1.10175735      14     -0.02780521      0.00730577     -0.02654089
8
time=0.21769959 energy=-1303.06555986 hamiltonian=-1303.06555986 virial="0.00055357       0.00238240       0.00283897       0.00238240      -0.00093102      -0.00217437       0.00283897      -0.00217437       0.00085232" cutoff=-1.00000000 nneightol=1.20000000 pbc="T T T" Lattice="5.74285657      -1.13478458      -0.45079146      -1.10322414       4.69363204       1.06602484      -0.36512033       1.19806901       5.73593755" Properties=species:S:1:pos:R:3:Z:I:1:force:R:3
Si              4.10290034      2.44016545      1.48594758      14      0.01476650     -0.00103596      0.00108551
Si              0.65536337      0.07705788      2.55891173      14      0.00298950     -0.00717322      0.01422872
Si              2.06488246      3.86260238      1.66549847      14      0.02036302      0.01649905     -0.02531237
Si              0.23819701      2.70264878      4.83614741      14     -0.02639900     -0.00716156      0.02416962
Si              0.37524032      2.23470689      1.34277348      14      0.02452918      0.00369521      0.02520950
Si              4.77529644     -0.52431993      3.77430474      14     -0.01145944     -0.00946622     -0.00016769
Si              3.03269845      0.62753808      2.61762028      14      0.00244616     -0.00172924     -0.01450633
Si              2.85208583      0.78563338     -1.10234709      14     -0.02723591      0.00637194     -0.02470696
8
time=0.24188843 energy=-1303.06568426 hamiltonian=-1303.06568426 virial="0.00062780       0.00185087       0.00132009       0.00185087      -0.00044378      -0.00142766       0.00132009      -0.00142766       0.00092786" cutoff=-1.00000000 nneightol=1.20000000 pbc="T T T" Lattice="5.74285185      -1.13471505      -0.45071006      -1.10316265       4.69358976       1.06596860      -0.36503651       1.19800502       5.73594189" Properties=species:S:1:pos:R:3:Z:I:1:force:R:3
Si              4.10325772      2.44016546      1.48600347      14      0.01443142     -0.00068729      0.00110794
Si              0.65545852      0.07689466      2.55922214      14      0.00296720     -0.00694861      0.01362158
Si              2.06536950      3.86292908      1.66497042      14      0.01964751      0.01575178     -0.02437765
Si              0.23774520      2.70244101      4.83663759      14     -0.02545933     -0.00694234      0.02312480
Si              0.37578775      2.23476224      1.34327960      14      0.02359439      0.00350498      0.02436055
Si              4.77511191     -0.52449495      3.77438084      14     -0.01150471     -0.00887162     -0.00003438
Si              3.03279404      0.62751049      2.61736387      14      0.00240365     -0.00170524     -0.01407942
Si              2.85152775      0.78579701     -1.10283331      14     -0.02608014      0.00589835     -0.02372342
8
time=0.26607728 energy=-1303.06699178 hamiltonian=-1303.06699178 virial="-0.00288987      -0.00283158      -0.00814156      -0.00283158       0.00379786       0.00351044      -0.00814156       0.00351044      -0.00346844" cutoff=-1.00000000 nneightol=1.20000000 pbc="T T T" Lattice="5.74290055      -1.13391377      -0.45010935      -1.10250782       4.69319435       1.06546915      -0.36438108       1.19736429       5.73614296" Properties=species:S:1:pos:R:3:Z:I:1:force:R:3
Si              4.10843985      2.44028325      1.48658629      14      0.00885454      0.00301859      0.00080915
Si              0.65665630      0.07455794      2.56376602      14      0.00152715     -0.00230839      0.00714376
Si              2.07234366      3.86787474      1.65712888      14      0.00964234      0.00468547     -0.00994544
Si              0.23048053      2.69963968      4.84400869      14     -0.01060044     -0.00371768      0.00946194
Si              0.38370982      2.23568842      1.35090013      14      0.00958799      0.00066484      0.01080601
Si              4.77191309     -0.52701035      3.77509696      14     -0.00966839     -0.00196416      0.00083084
Si              3.03397830      0.62713626      2.61328253      14      0.00086646     -0.00000328     -0.00870135
Si              2.84338930      0.78804125     -1.11027465      14     -0.01020965     -0.00037538     -0.01040493
8
time=0.29026612 energy=-1303.06721193 hamiltonian=-1303.06721193 virial="0.01703814       0.02655063       0.10046304       0.02655063      -0.01145558      -0.03948117       0.10046304      -0.03948117       0.02290507" cutoff=-1.00000000 nneightol=1.20000000 pbc="T T T" Lattice="5.74197464      -1.13616832      -0.45504386      -1.10444367       4.69574057       1.06771375      -0.36929223       1.19997131       5.73492496" Properties=species:S:1:pos:R:3:Z:I:1:force:R:3
Si              4.10950223      2.44200215      1.48400058      14     -0.00343479     -0.01118333     -0.00466058
Si              0.65507571      0.07423425      2.56573843      14     -0.00799634      0.01108226      0.02206476
Si              2.07378858      3.87160523      1.65162661      14      0.00523138     -0.00124465      0.00442089
Si              0.22072216      2.70058027      4.84758714      14      0.00488362     -0.00163743      0.00689919
Si              0.38633934      2.23724025      1.35600340      14     -0.00282491     -0.00078367     -0.00174701
Si              4.76312301     -0.52818945      3.77012412      14      0.01625863     -0.01341503     -0.00811275
Si              3.03120789      0.62747375      2.60608365      14     -0.00631797      0.01300356     -0.00975324
Si              2.83847134      0.78697013     -1.11679918      14     -0.00579962      0.00417830     -0.00911125
8
time=0.31445496 energy=-1303.06729893 hamiltonian=-1303.06729893 virial="0.00564246      -0.00948998      -0.04537606      -0.00948998      -0.03423483       0.02042637      -0.04537606       0.02042637       0.00405026" cutoff=-1.00000000 nneightol=1.20000000 pbc="T T T" Lattice="5.74216555      -1.13423206      -0.44861478      -1.10214485       4.69438689       1.06477868      -0.36297931       1.19734223       5.73536416" Properties=species:S:1:pos:R:3:Z:I:1:force:R:3
Si              4.11231633      2.44168780      1.48740009      14      0.00595154      0.00541316      0.00343217
Si              0.65752389      0.07386250      2.56807349      14      0.00333686     -0.00681939     -0.00607015
Si              2.07727058      3.87094389      1.65274783      14     -0.00382445      0.00207591     -0.00865568
Si              0.22688190      2.69821098      4.84813241      14     -0.00529777     -0.00074299     -0.00233087
Si              0.38834526      2.23646158      1.35567907      14      0.00651084      0.00151294      0.00414527
Si              4.76855045     -0.52898125      3.77586123      14     -0.01235486      0.00631555      0.00312006
Si              3.03435330      0.62778236      2.60913273      14      0.00442248     -0.00430123      0.00124426
Si              2.83773850      0.78832311     -1.11485972      14      0.00125536     -0.00345395      0.00511493
8
time=0.33864381 energy=-1303.06733503 hamiltonian=-1303.06733503 virial="0.00562854       0.00431639       0.00200383       0.00431639       0.01108484      -0.00667687       0.00200383      -0.00667687       0.00489482" cutoff=-1.00000000 nneightol=1.20000000 pbc="T T T" Lattice="5.74263174      -1.13439153      -0.45065689      -1.10287352       4.69345026       1.06588154      -0.36492902       1.19788870       5.73584168" Properties=species:S:1:pos:R:3:Z:I:1:force:R:3
Si              4.11203183      2.44120322      1.48660165      14      0.00291884      0.00180678     -0.00008384
Si              0.65682678      0.07394985      2.56775238      14     -0.00055492     -0.00061820      0.00273865
Si              2.07641737      3.87015517      1.65242740      14      0.00139955      0.00048596     -0.00148346
Si              0.22495756      2.69819606      4.84854204      14     -0.00015598     -0.00108376      0.00291632
Si              0.38798014      2.23612645      1.35607374      14      0.00192476     -0.00016676     -0.00013892
Si              4.76716268     -0.52842381      3.77445782      14     -0.00231738     -0.00042556     -0.00042632
Si              3.03373963      0.62766276      2.60837163      14     -0.00048863     -0.00009997     -0.00179799
Si              2.83820026      0.78767040     -1.11552039      14     -0.00272625      0.00010151     -0.00172444
8
time=0.36283265 energy=-1303.06733040 hamiltonian=-1303.06733040 virial="-0.00248360       0.00081331       0.00015410       0.00081331      -0.00489328      -0.00058418       0.00015410      -0.00058418      -0.00230808" cutoff=-1.00000000 nneightol=1.20000000 pbc="T T T" Lattice="5.74279219      -1.13430285      -0.45055034      -1.10277140       4.69370360       1.06570240      -0.36483796       1.19773040       5.73595673" Properties=species:S:1:pos:R:3:Z:I:1:force:R:3
Si              4.11234141      2.44147030      1.48659247      14      0.00239618      0.00085021      0.00031860
Si              0.65686724      0.07385014      2.56791253      14     -0.00016218     -0.00054515      0.00240247
Si              2.07665370      3.87042464      1.65229749      14      0.00054966      0.00057663     -0.00248646
Si              0.22509374      2.69816173      4.84865952      14     -0.00088007     -0.00105061      0.00178840
Si              0.38812592      2.23623245      1.35602120      14      0.00239662     -0.00001424      0.00090876
Si              4.76729176     -0.52850163      3.77463945      14     -0.00246069     -0.00016405     -0.00016773
Si              3.03387864      0.62767707      2.60840900      14      0.00006796      0.00067512     -0.00195689
Si              2.83822634      0.78784623     -1.11560058      14     -0.00190748     -0.00032790     -0.00080715
