8
Lattice="5.433701972748215 -3.7670111704897566e-16 -3.7670111704897566e-16 -9.794229043273368e-16 5.433701972748215 -9.794229043273368e-16 -2.260206702293854e-16 -7.534022340979513e-16 5.433701972748215" Properties=species:S:1:pos:R:3:Z:I:1:forces:R:3 stress="4.914744444485798e-05 -9.405980387416433e-37 -3.133675061639524e-37 -9.405980387416433e-37 4.914744444485801e-05 1.5738228181085273e-20 -3.133675061639524e-37 1.5738228181085273e-20 4.914744444485798e-05" energy=-37.0399995273 Minim_Constant_Volume=T Minim_Hydrostatic_Strain=F pbc="T T T"
Si       0.00000000      -0.00000000       0.00000000       14       0.00000000       0.00000000      -0.00000000 
Si       1.35842549       1.35842549       1.35842549       14      -0.00000000      -0.00000000      -0.00000000 
Si       2.71685099       2.71685099       0.00000000       14       0.00000000      -0.00000000      -0.00000000 
Si       4.07527648       4.07527648       1.35842549       14      -0.00000000      -0.00000000       0.00000000 
Si       2.71685099       0.00000000       2.71685099       14       0.00000000       0.00000000       0.00000000 
Si       4.07527648       1.35842549       4.07527648       14       0.00000000      -0.00000000       0.00000000 
Si       0.00000000       2.71685099       2.71685099       14       0.00000000       0.00000000      -0.00000000 
Si       1.35842549       4.07527648       4.07527648       14      -0.00000000      -0.00000000      -0.00000000 
8
Lattice="5.388038452740979 -3.735354117744896e-16 -3.735354117744896e-16 -9.71192070613673e-16 5.388038452740979 -9.71192070613673e-16 -2.241212470646938e-16 -7.470708235489792e-16 5.388038452740979" Properties=species:S:1:pos:R:3:Z:I:1:forces:R:3 stress="-0.016785098167356786 -7.012705514282932e-32 7.612616043865993e-35 -7.012705514282932e-32 -0.016785098167356804 -4.1829812274919975e-18 7.612616043865993e-35 -4.1829812274919975e-18 -0.016785098167356786" energy=-37.0072218093 Minim_Constant_Volume=T Minim_Hydrostatic_Strain=F pbc="T T T"
Si       0.00000000      -0.00000000       0.00000000       14      -0.00000000      -0.00000000      -0.00000000 
Si       1.34700961       1.34700961       1.34700961       14      -0.00000000       0.00000000       0.00000000 
Si       2.69401923       2.69401923       0.00000000       14       0.00000000      -0.00000000       0.00000000 
Si       4.04102884       4.04102884       1.34700961       14      -0.00000000       0.00000000       0.00000000 
Si       2.69401923       0.00000000       2.69401923       14      -0.00000000      -0.00000000      -0.00000000 
Si       4.04102884       1.34700961       4.04102884       14       0.00000000       0.00000000       0.00000000 
Si       0.00000000       2.69401923       2.69401923       14      -0.00000000      -0.00000000       0.00000000 
Si       1.34700961       4.04102884       4.04102884       14       0.00000000       0.00000000       0.00000000 
8
Lattice="5.341587533952726 -3.7031511866985396e-16 -3.7031511866985396e-16 -9.628193085416205e-16 5.341587533952726 -9.628193085416205e-16 -2.221890712019124e-16 -7.406302373397079e-16 5.341587533952726" Properties=species:S:1:pos:R:3:Z:I:1:forces:R:3 stress="-0.03613513019911851 -5.889530871725373e-31 9.37619285685911e-35 -5.889530871725373e-31 -0.03613513019911848 8.539997671621543e-18 9.37619285685911e-35 8.539997671621543e-18 -0.03613513019911851" energy=-36.901996198 Minim_Constant_Volume=T Minim_Hydrostatic_Strain=F pbc="T T T"
Si       0.00000000      -0.00000000       0.00000000       14      -0.00000000      -0.00000000       0.00000000 
Si       1.33539688       1.33539688       1.33539688       14      -0.00000000      -0.00000000      -0.00000000 
Si       2.67079377       2.67079377       0.00000000       14       0.00000000       0.00000000      -0.00000000 
Si       4.00619065       4.00619065       1.33539688       14       0.00000000      -0.00000000      -0.00000000 
Si       2.67079377       0.00000000       2.67079377       14      -0.00000000      -0.00000000      -0.00000000 
Si       4.00619065       1.33539688       4.00619065       14      -0.00000000      -0.00000000      -0.00000000 
Si       0.00000000       2.67079377       2.67079377       14       0.00000000      -0.00000000       0.00000000 
Si       1.33539688       4.00619065       4.00619065       14       0.00000000       0.00000000      -0.00000000 
8
Lattice="5.294314368606338 -3.670378218505332e-16 -3.670378218505332e-16 -9.542983368113864e-16 5.294314368606338 -9.542983368113864e-16 -2.202226931103199e-16 -7.340756437010664e-16 5.294314368606338" Properties=species:S:1:pos:R:3:Z:I:1:forces:R:3 stress="-0.05837435674190039 -1.8550532601193477e-33 -2.781127090188772e-34 -1.8550532601193477e-33 -0.058374356741900356 1.0612395774794615e-17 -2.781127090188772e-34 1.0612395774794615e-17 -0.05837435674190037" energy=-36.713502743 Minim_Constant_Volume=T Minim_Hydrostatic_Strain=F pbc="T T T"
Si       0.00000000      -0.00000000       0.00000000       14       0.00000000      -0.00000000      -0.00000000 
Si       1.32357859       1.32357859       1.32357859       14       0.00000000      -0.00000000      -0.00000000 
Si       2.64715718       2.64715718       0.00000000       14      -0.00000000       0.00000000       0.00000000 
Si       3.97073578       3.97073578       1.32357859       14      -0.00000000       0.00000000       0.00000000 
Si       2.64715718       0.00000000       2.64715718       14       0.00000000      -0.00000000       0.00000000 
Si       3.97073578       1.32357859       3.97073578       14      -0.00000000       0.00000000      -0.00000000 
Si       0.00000000       2.64715718       2.64715718       14      -0.00000000       0.00000000       0.00000000 
Si       1.32357859       3.97073578       3.97073578       14       0.00000000      -0.00000000      -0.00000000 
8
Lattice="5.2461815737990705 -3.637009296798688e-16 -3.637009296798688e-16 -9.45622417167659e-16 5.2461815737990705 -9.45622417167659e-16 -2.182205578079213e-16 -7.274018593597376e-16 5.2461815737990705" Properties=species:S:1:pos:R:3:Z:I:1:forces:R:3 stress="-0.08393866648588548 1.5748366026463807e-31 2.8445581506004878e-33 1.5748366026463807e-31 -0.08393866648588552 -2.579033379616784e-17 2.8445581506004878e-33 -2.579033379616784e-17 -0.08393866648588551" energy=-36.4293021831 Minim_Constant_Volume=T Minim_Hydrostatic_Strain=F pbc="T T T"
Si       0.00000000      -0.00000000       0.00000000       14       0.00000000      -0.00000000       0.00000000 
Si       1.31154539       1.31154539       1.31154539       14      -0.00000000       0.00000000       0.00000000 
Si       2.62309079       2.62309079       0.00000000       14      -0.00000000       0.00000000      -0.00000000 
Si       3.93463618       3.93463618       1.31154539       14       0.00000000      -0.00000000      -0.00000000 
Si       2.62309079       0.00000000       2.62309079       14       0.00000000      -0.00000000      -0.00000000 
Si       3.93463618       1.31154539       3.93463618       14      -0.00000000      -0.00000000      -0.00000000 
Si       0.00000000       2.62309079       2.62309079       14      -0.00000000       0.00000000       0.00000000 
Si       1.31154539       3.93463618       3.93463618       14       0.00000000      -0.00000000      -0.00000000 
8
Lattice="5.197148970780954 -3.603016566940886e-16 -3.603016566940886e-16 -9.367843074046305e-16 5.197148970780954 -9.367843074046305e-16 -2.161809940164532e-16 -7.206033133881772e-16 5.197148970780954" Properties=species:S:1:pos:R:3:Z:I:1:forces:R:3 stress="-0.11333847813130091 -1.5867568410530588e-31 -6.621989194322586e-34 -1.5867568410530588e-31 -0.11333847813130092 -1.0998205024067146e-17 -6.621989194322586e-34 -1.0998205024067146e-17 -0.11333847813130087" energy=-36.0350619862 Minim_Constant_Volume=T Minim_Hydrostatic_Strain=F pbc="T T T"
Si       0.00000000      -0.00000000       0.00000000       14      -0.00000000      -0.00000000       0.00000000 
Si       1.29928724       1.29928724       1.29928724       14      -0.00000000       0.00000000       0.00000000 
Si       2.59857449       2.59857449       0.00000000       14       0.00000000       0.00000000      -0.00000000 
Si       3.89786173       3.89786173       1.29928724       14       0.00000000      -0.00000000       0.00000000 
Si       2.59857449       0.00000000       2.59857449       14      -0.00000000      -0.00000000       0.00000000 
Si       3.89786173       1.29928724       3.89786173       14      -0.00000000      -0.00000000      -0.00000000 
Si       0.00000000       2.59857449       2.59857449       14       0.00000000       0.00000000       0.00000000 
Si       1.29928724       3.89786173       3.89786173       14       0.00000000      -0.00000000       0.00000000 
8
Lattice="5.478610637168966 -3.79814490608534e-16 -3.79814490608534e-16 -9.875176755821886e-16 5.478610637168966 -9.875176755821886e-16 -2.2788869436512043e-16 -7.59628981217068e-16 5.478610637168966" Properties=species:S:1:pos:R:3:Z:I:1:forces:R:3 stress="0.01468843691574754 -7.037645814857751e-32 -1.7138196803150195e-34 -7.037645814857751e-32 0.014688436915747545 4.004908396393513e-18 -1.7138196803150195e-34 4.004908396393513e-18 0.014688436915747534" energy=-37.0097600862 Minim_Constant_Volume=T Minim_Hydrostatic_Strain=F pbc="T T T"
Si       0.00000000      -0.00000000       0.00000000       14       0.00000000      -0.00000000      -0.00000000 
Si       1.36965266       1.36965266       1.36965266       14      -0.00000000      -0.00000000       0.00000000 
Si       2.73930532       2.73930532       0.00000000       14      -0.00000000       0.00000000      -0.00000000 
Si       4.10895798       4.10895798       1.36965266       14      -0.00000000      -0.00000000       0.00000000 
Si       2.73930532       0.00000000       2.73930532       14       0.00000000      -0.00000000      -0.00000000 
Si       4.10895798       1.36965266       4.10895798       14       0.00000000      -0.00000000      -0.00000000 
Si       0.00000000       2.73930532       2.73930532       14      -0.00000000       0.00000000      -0.00000000 
Si       1.36965266       4.10895798       4.10895798       14       0.00000000      -0.00000000       0.00000000 
8
Lattice="5.522794889118969 -3.8287764297666457e-16 -3.8287764297666457e-16 -9.95481871739328e-16 5.522794889118969 -9.95481871739328e-16 -2.297265857859988e-16 -7.657552859533291e-16 5.522794889118969" Properties=species:S:1:pos:R:3:Z:I:1:forces:R:3 stress="0.02740919691722901 1.7608202727001704e-33 1.7359411783372975e-34 1.7608202727001704e-33 0.027409196917229 5.091664182081675e-18 1.7359411783372975e-34 5.091664182081675e-18 0.02740919691722899" energy=-36.9247389713 Minim_Constant_Volume=T Minim_Hydrostatic_Strain=F pbc="T T T"
Si       0.00000000      -0.00000000       0.00000000       14       0.00000000       0.00000000       0.00000000 
Si       1.38069872       1.38069872       1.38069872       14       0.00000000       0.00000000       0.00000000 
Si       2.76139744       2.76139744       0.00000000       14       0.00000000       0.00000000       0.00000000 
Si       4.14209617       4.14209617       1.38069872       14      -0.00000000      -0.00000000      -0.00000000 
Si       2.76139744       0.00000000       2.76139744       14       0.00000000       0.00000000       0.00000000 
Si       4.14209617       1.38069872       4.14209617       14       0.00000000       0.00000000       0.00000000 
Si       0.00000000       2.76139744       2.76139744       14       0.00000000       0.00000000      -0.00000000 
Si       1.38069872       4.14209617       4.14209617       14      -0.00000000      -0.00000000      -0.00000000 
8
Lattice="5.566283253586843 -3.858925516992708e-16 -3.858925516992708e-16 -1.0033206344181042e-15 5.566283253586843 -1.0033206344181042e-15 -2.315355310195625e-16 -7.717851033985416e-16 5.566283253586843" Properties=species:S:1:pos:R:3:Z:I:1:forces:R:3 stress="0.038450225934409506 8.595584668028698e-34 4.14734938397749e-34 8.595584668028698e-34 0.038450225934409485 1.1529475832762164e-18 4.14734938397749e-34 1.1529475832762164e-18 0.0384502259344095" energy=-36.7921405042 Minim_Constant_Volume=T Minim_Hydrostatic_Strain=F pbc="T T T"
Si       0.00000000      -0.00000000       0.00000000       14       0.00000000       0.00000000       0.00000000 
Si       1.39157081       1.39157081       1.39157081       14      -0.00000000       0.00000000       0.00000000 
Si       2.78314163       2.78314163       0.00000000       14      -0.00000000       0.00000000      -0.00000000 
Si       4.17471244       4.17471244       1.39157081       14       0.00000000      -0.00000000      -0.00000000 
Si       2.78314163       0.00000000       2.78314163       14       0.00000000       0.00000000      -0.00000000 
Si       4.17471244       1.39157081       4.17471244       14      -0.00000000       0.00000000       0.00000000 
Si       0.00000000       2.78314163       2.78314163       14      -0.00000000       0.00000000       0.00000000 
Si       1.39157081       4.17471244       4.17471244       14       0.00000000      -0.00000000      -0.00000000 
8
Lattice="5.609102499784018 -3.888610725998591e-16 -3.888610725998591e-16 -1.0110387887596337e-15 5.609102499784018 -1.0110387887596337e-15 -2.3331664355991546e-16 -7.777221451997182e-16 5.609102499784018" Properties=species:S:1:pos:R:3:Z:I:1:forces:R:3 stress="0.04801833248953664 2.6754668939750724e-31 6.377980113079108e-34 2.6754668939750724e-31 0.048018332489536596 -6.544269219738898e-18 6.377980113079108e-34 -6.544269219738898e-18 0.04801833248953662" energy=-36.6182771111 Minim_Constant_Volume=T Minim_Hydrostatic_Strain=F pbc="T T T"
Si       0.00000000      -0.00000000       0.00000000       14       0.00000000       0.00000000      -0.00000000 
Si       1.40227562       1.40227562       1.40227562       14       0.00000000      -0.00000000       0.00000000 
Si       2.80455125       2.80455125       0.00000000       14       0.00000000       0.00000000       0.00000000 
Si       4.20682687       4.20682687       1.40227562       14      -0.00000000       0.00000000      -0.00000000 
Si       2.80455125       0.00000000       2.80455125       14      -0.00000000       0.00000000       0.00000000 
Si       4.20682687       1.40227562       4.20682687       14       0.00000000      -0.00000000      -0.00000000 
Si       0.00000000       2.80455125       2.80455125       14       0.00000000       0.00000000      -0.00000000 
Si       1.40227562       4.20682687       4.20682687       14      -0.00000000       0.00000000       0.00000000 
8
Lattice="5.65127778639939 -3.9178494984957805e-16 -3.9178494984957805e-16 -1.018640869608903e-15 5.65127778639939 -1.018640869608903e-15 -2.3507096990974683e-16 -7.835698996991561e-16 5.65127778639939" Properties=species:S:1:pos:R:3:Z:I:1:forces:R:3 stress="0.056293044702781236 -1.7454238926296558e-32 -1.848987184348695e-34 -1.7454238926296558e-32 0.056293044702781216 2.0313851146173586e-18 -1.848987184348695e-34 2.0313851146173586e-18 0.05629304470278123" energy=-36.4086879027 Minim_Constant_Volume=T Minim_Hydrostatic_Strain=F pbc="T T T"
Si       0.00000000      -0.00000000       0.00000000       14      -0.00000000       0.00000000       0.00000000 
Si       1.41281945       1.41281945       1.41281945       14       0.00000000      -0.00000000      -0.00000000 
Si       2.82563889       2.82563889       0.00000000       14       0.00000000       0.00000000       0.00000000 
Si       4.23845834       4.23845834       1.41281945       14       0.00000000       0.00000000      -0.00000000 
Si       2.82563889       0.00000000       2.82563889       14      -0.00000000       0.00000000       0.00000000 
Si       4.23845834       1.41281945       4.23845834       14       0.00000000      -0.00000000      -0.00000000 
Si       0.00000000       2.82563889       2.82563889       14       0.00000000      -0.00000000      -0.00000000 
Si       1.41281945       4.23845834       4.23845834       14       0.00000000       0.00000000       0.00000000 
8
Lattice="5.692832791896476 -3.946658250003017e-16 -3.946658250003017e-16 -1.0261311450007845e-15 5.692832791896476 -1.0261311450007845e-15 -2.3679949500018106e-16 -7.893316500006034e-16 5.692832791896476" Properties=species:S:1:pos:R:3:Z:I:1:forces:R:3 stress="0.06343055822701747 2.372636741842861e-34 7.776104972220202e-34 2.372636741842861e-34 0.06343055822701746 -2.4097056684616816e-18 7.776104972220202e-34 -2.4097056684616816e-18 0.06343055822701746" energy=-36.1682399422 Minim_Constant_Volume=T Minim_Hydrostatic_Strain=F pbc="T T T"
Si       0.00000000      -0.00000000       0.00000000       14       0.00000000      -0.00000000      -0.00000000 
Si       1.42320820       1.42320820       1.42320820       14       0.00000000       0.00000000      -0.00000000 
Si       2.84641640       2.84641640       0.00000000       14       0.00000000       0.00000000       0.00000000 
Si       4.26962459       4.26962459       1.42320820       14      -0.00000000      -0.00000000       0.00000000 
Si       2.84641640       0.00000000       2.84641640       14      -0.00000000      -0.00000000      -0.00000000 
Si       4.26962459       1.42320820       4.26962459       14       0.00000000      -0.00000000      -0.00000000 
Si       0.00000000       2.84641640       2.84641640       14      -0.00000000      -0.00000000       0.00000000 
Si       1.42320820       4.26962459       4.26962459       14       0.00000000      -0.00000000      -0.00000000 
