48
energy=-8203.60944581 enthalpy=-8203.60920000 castep_file_name=gb.castep castep_run_time=16556.15000000 virial="-0.00551755      -0.07779315      -0.02924855      -0.07779315      -0.00290948       0.03650687      -0.02924855       0.03650687       0.00710454" cutoff=-1.00000000 nneightol=1.20000000 pbc="T T T" Lattice="3.80433350       0.00021550       0.00008830       0.00052510       9.50677000      -0.00029180       0.00061210      -0.00084220      27.24913190" Properties=species:S:1:pos:R:3:Z:I:1:frac_pos:R:3:force:R:3
Si              0.48054802     -0.43868766     -0.11436724      14      0.12632300     -0.04614800     -0.00419800      0.00425000     -0.00416000     -0.00128000
Si              0.48083412      0.44755699     11.11933267      14      0.12631900      0.04711100      0.40806200     -0.00437000      0.00397000      0.00126000
Si              0.48267027      2.79356914     10.87984983      14      0.12676900      0.29388300      0.39927600     -0.00212000      0.00161000     -0.00180000
Si              0.48153733      3.62111493      8.70910406      14      0.12647200      0.38092400      0.31961400     -0.00525000     -0.00367000      0.00111000
Si              0.47993759      5.97216995      8.93988650      14      0.12601600      0.62822800      0.32808600      0.00502000      0.00088000     -0.00109000
Si              0.48039469      6.75343883      6.70573346      14      0.12613800      0.71040100      0.24609700     -0.00406000      0.00055000      0.00678000
Si              0.48045476     -0.39136214      6.62543158      14      0.12625800     -0.04114800      0.24314200      0.00486000      0.00182000      0.00138000
Si              0.48138005      0.39965159      4.37928864      14      0.12650300      0.04205000      0.16071300     -0.00563000     -0.00156000     -0.00131000
Si              0.48144785      2.76165860      4.29921268      14      0.12648700      0.29050500      0.15777700      0.00416000     -0.00033000     -0.00702000
Si              0.48181365      3.54316515      2.06514138      14      0.12658500      0.37270300      0.07579100     -0.00481000     -0.00091000      0.00085000
Si              0.48020631      5.89422017      2.29565133      14      0.12612700      0.62000700      0.08425300      0.00557000      0.00361000     -0.00136000
Si              0.47945001      6.72207020      0.12487831      14      0.12592900      0.70708000      0.00459000      0.00056000     -0.00188000      0.00211000
Si              2.38255311     -0.39968775     10.03641332      14      0.62622000     -0.04202400      0.36831800      0.00541000     -0.00122000      0.00155000
Si              2.38298001      0.39671672      7.77623689      14      0.62633400      0.04174100      0.28537400     -0.00473000      0.00379000      0.00720000
Si              2.38332104      2.76937308      7.63945518      14      0.62639000      0.29131600      0.28035700      0.00482000     -0.00169000      0.00246000
Si              2.38391668      3.57243095      5.42287716      14      0.62654800      0.37578100      0.19901300     -0.00546000      0.00152000      0.00436000
Si              2.38224414      5.94301508      5.58207553      14      0.62607300      0.62513900      0.20485800      0.00568000     -0.00135000     -0.00449000
Si              2.38276370      6.74604442      3.36549751      14      0.62621100      0.70960100      0.12351400     -0.00451000      0.00183000     -0.00242000
Si              2.38315406     -0.38811670      3.22851712      14      0.62641800     -0.04082900      0.11847900      0.00407000     -0.00347000     -0.00700000
Si              2.38319677      0.40875357      0.96853142      14      0.62643100      0.04298500      0.03554200     -0.00547000      0.00112000     -0.00149000
Si              2.38370965      2.77547635      0.87600248      14      0.62653200      0.29193600      0.03214900      0.00248000      0.00112000      0.00315000
Si              2.38487183      3.52910478     12.31489243      14      0.62675900      0.37124600      0.45193900     -0.00260000     -0.00237000      0.00014000
Si              2.38165260      5.85698933     12.31484815      14      0.62587900      0.61611200      0.45194000      0.00145000      0.00174000     -0.00164000
Si              2.38238272      6.74036896     10.12881395      14      0.62607100      0.70902600      0.37171700     -0.00234000     -0.00134000     -0.00314000
Si              0.48056446      0.44745455     13.51049848      14      0.12623400      0.04710800      0.49581400     -0.00203000      0.00328000     -0.00041000
Si              0.48233528      2.79343287     13.74997363      14      0.12666400      0.29387800      0.50460500     -0.00075000      0.00122000     -0.00022000
Si              0.48141780      3.62092055     15.92047781      14      0.12639800      0.38092700      0.58426000     -0.00288000     -0.00398000      0.00212000
Si              0.48007400      5.97195181     15.68990521      14      0.12601200      0.62822700      0.57580100      0.00277000      0.00127000     -0.00175000
Si              0.48047549      6.75332027     17.92371056      14      0.12609300      0.71042500      0.65777900     -0.00194000     -0.00051000     -0.00396000
Si              0.48053167      9.11520825     18.00380501      14      0.12607300      0.95886800      0.66072100      0.00347000      0.00244000     -0.00406000
Si              0.48097190      0.39943672     20.24989150      14      0.12630200      0.04207900      0.74313900     -0.00267000     -0.00267000      0.00411000
Si              0.48162536      2.76132472     20.33042195      14      0.12643900      0.29052200      0.74609700      0.00179000      0.00027000      0.00384000
Si              0.48213718      3.54262663     22.56422731      14      0.12654900      0.37271300      0.82807500     -0.00296000     -0.00100000      0.00172000
Si              0.48074392      5.89362938     22.33351847      14      0.12615000      0.62001000      0.81961100      0.00260000      0.00385000     -0.00210000
Si              0.47969330      6.72137373     24.50391364      14      0.12584900      0.70708600      0.89926200      0.00224000     -0.00093000      0.00015000
Si              0.48147934      9.06734255     24.74336154      14      0.12628300      0.95385500      0.90805200      0.00222000     -0.00331000      0.00047000
Si              2.38536002      3.65797577     25.93907293      14      0.62680500      0.38484600      0.95192500     -0.00160000     -0.00144000      0.00162000
Si              2.38185926      5.98590784     25.93902864      14      0.62585100      0.62971700      0.95192600      0.00260000      0.00171000     -0.00045000
Si              2.38236678      6.74009123     14.50066467      14      0.62604100      0.70901100      0.53215700     -0.00054000     -0.00160000      0.00603000
Si              2.38292567      9.10675125     14.59315734      14      0.62615300      0.95795600      0.53555400      0.00331000     -0.00050000     -0.00370000
Si              2.38238881      0.39656922     16.85322245      14      0.62612500      0.04175500      0.61848500     -0.00180000      0.00262000     -0.00446000
Si              2.38337131      2.76909356     16.99048527      14      0.62634800      0.29131700      0.62352500      0.00215000     -0.00079000     -0.00543000
Si              2.38393719      3.57217603     19.20665977      14      0.62647200      0.37579900      0.70485600     -0.00332000      0.00098000     -0.00112000
Si              2.38251238      5.94269396     19.04750655      14      0.62606400      0.62514900      0.69901800      0.00310000     -0.00084000      0.00117000
Si              2.38310870      6.74569087     21.26373555      14      0.62619600      0.70962200      0.78035100     -0.00245000      0.00097000      0.00562000
Si              2.38347868      9.11822470     21.40053513      14      0.62625800      0.95918500      0.78537400      0.00251000     -0.00284000      0.00459000
Si              2.38340596      0.40804269     23.66062749      14      0.62635200      0.04298400      0.86830600     -0.00322000      0.00070000      0.00378000
Si              2.38418930      2.77468371     23.75336540      14      0.62652300      0.29192700      0.87171200      0.00041000      0.00150000     -0.00588000
