8
Lattice="5.428835233189813 0.0 0.0 0.0 5.428835233189813 0.0 0.0 0.0 5.428835233189813" Properties=species:S:1:pos:R:3:Z:I:1:forces:R:3 stress="-5.628253744451283e-05 -8.712963615620605e-35 0.0 -8.712963615620605e-35 -5.628253744451284e-05 6.970370892496484e-35 0.0 6.970370892496484e-35 -5.628253744451283e-05" energy=-37.0399938611 Minim_Constant_Volume=T Minim_Hydrostatic_Strain=F pbc="T T T"
Si       0.00000000       0.00000000       0.00000000       14       0.00000000      -0.00000000       0.00000000 
Si       1.35720881       1.35720881       1.35720881       14       0.00000000       0.00000000       0.00000000 
Si       2.71441762       2.71441762       0.00000000       14       0.00000000       0.00000000      -0.00000000 
Si       4.07162642       4.07162642       1.35720881       14      -0.00000000      -0.00000000       0.00000000 
Si       2.71441762       0.00000000       2.71441762       14       0.00000000      -0.00000000      -0.00000000 
Si       4.07162642       1.35720881       4.07162642       14      -0.00000000       0.00000000       0.00000000 
Si       0.00000000       2.71441762       2.71441762       14      -0.00000000      -0.00000000      -0.00000000 
Si       1.35720881       4.07162642       4.07162642       14       0.00000000      -0.00000000       0.00000000 
8
Lattice="5.383212612087283 0.0 0.0 0.0 5.383212612087283 0.0 0.0 0.0 5.383212612087283" Properties=species:S:1:pos:R:3:Z:I:1:forces:R:3 stress="-0.016638854220183075 -1.4178038108200932e-34 0.0 -1.4178038108200932e-34 -0.016638854220183075 1.4178038108200932e-34 0.0 1.4178038108200932e-34 -0.016638854220183075" energy=-37.0073738532 Minim_Constant_Volume=T Minim_Hydrostatic_Strain=F pbc="T T T"
Si       0.00000000       0.00000000       0.00000000       14       0.00000000       0.00000000      -0.00000000 
Si       1.34580315       1.34580315       1.34580315       14       0.00000000      -0.00000000      -0.00000000 
Si       2.69160631       2.69160631       0.00000000       14      -0.00000000      -0.00000000      -0.00000000 
Si       4.03740946       4.03740946       1.34580315       14      -0.00000000       0.00000000       0.00000000 
Si       2.69160631       0.00000000       2.69160631       14      -0.00000000       0.00000000      -0.00000000 
Si       4.03740946       1.34580315       4.03740946       14      -0.00000000      -0.00000000      -0.00000000 
Si       0.00000000       2.69160631       2.69160631       14       0.00000000      -0.00000000      -0.00000000 
Si       1.34580315       4.03740946       4.03740946       14       0.00000000       0.00000000       0.00000000 
8
Lattice="5.336803297443889 0.0 0.0 0.0 5.336803297443889 0.0 0.0 0.0 5.336803297443889" Properties=species:S:1:pos:R:3:Z:I:1:forces:R:3 stress="-0.035699180490142486 0.0 0.0 0.0 -0.035699180490142486 0.0 0.0 0.0 -0.035699180490142486" energy=-36.9035816561 Minim_Constant_Volume=T Minim_Hydrostatic_Strain=F pbc="T T T"
Si       0.00000000       0.00000000       0.00000000       14      -0.00000000      -0.00000000      -0.00000000 
Si       1.33420082       1.33420082       1.33420082       14       0.00000000       0.00000000       0.00000000 
Si       2.66840165       2.66840165       0.00000000       14       0.00000000      -0.00000000       0.00000000 
Si       4.00260247       4.00260247       1.33420082       14      -0.00000000       0.00000000       0.00000000 
Si       2.66840165       0.00000000       2.66840165       14      -0.00000000      -0.00000000      -0.00000000 
Si       4.00260247       1.33420082       4.00260247       14       0.00000000      -0.00000000       0.00000000 
Si       0.00000000       2.66840165       2.66840165       14       0.00000000      -0.00000000       0.00000000 
Si       1.33420082       4.00260247       4.00260247       14      -0.00000000       0.00000000       0.00000000 
8
Lattice="5.289572472694207 0.0 0.0 0.0 5.289572472694207 0.0 0.0 0.0 5.289572472694207" Properties=species:S:1:pos:R:3:Z:I:1:forces:R:3 stress="-0.05760570330992735 0.0 0.0 0.0 -0.05760570330992735 0.0 0.0 0.0 -0.05760570330992735" energy=-36.7179882162 Minim_Constant_Volume=T Minim_Hydrostatic_Strain=F pbc="T T T"
Si       0.00000000       0.00000000       0.00000000       14      -0.00000000       0.00000000       0.00000000 
Si       1.32239312       1.32239312       1.32239312       14       0.00000000       0.00000000       0.00000000 
Si       2.64478624       2.64478624       0.00000000       14       0.00000000       0.00000000       0.00000000 
Si       3.96717935       3.96717935       1.32239312       14      -0.00000000      -0.00000000       0.00000000 
Si       2.64478624       0.00000000       2.64478624       14       0.00000000       0.00000000       0.00000000 
Si       3.96717935       1.32239312       3.96717935       14      -0.00000000       0.00000000      -0.00000000 
Si       0.00000000       2.64478624       2.64478624       14      -0.00000000       0.00000000       0.00000000 
Si       1.32239312       3.96717935       3.96717935       14       0.00000000      -0.00000000      -0.00000000 
8
Lattice="5.241482788417793 0.0 0.0 0.0 5.241482788417793 0.0 0.0 0.0 5.241482788417793" Properties=species:S:1:pos:R:3:Z:I:1:forces:R:3 stress="-0.08278866849624957 0.0 0.0 0.0 -0.08278866849624957 0.0 0.0 0.0 -0.08278866849624957" energy=-36.4383707038 Minim_Constant_Volume=T Minim_Hydrostatic_Strain=F pbc="T T T"
Si       0.00000000       0.00000000       0.00000000       14      -0.00000000       0.00000000       0.00000000 
Si       1.31037070       1.31037070       1.31037070       14       0.00000000       0.00000000       0.00000000 
Si       2.62074139       2.62074139       0.00000000       14       0.00000000      -0.00000000      -0.00000000 
Si       3.93111209       3.93111209       1.31037070       14       0.00000000      -0.00000000      -0.00000000 
Si       2.62074139       0.00000000       2.62074139       14       0.00000000       0.00000000       0.00000000 
Si       3.93111209       1.31037070       3.93111209       14      -0.00000000       0.00000000       0.00000000 
Si       0.00000000       2.62074139       2.62074139       14      -0.00000000      -0.00000000      -0.00000000 
Si       1.31037070       3.93111209       3.93111209       14       0.00000000       0.00000000      -0.00000000 
8
Lattice="5.1924941018511035 0.0 0.0 0.0 5.1924941018511035 0.0 0.0 0.0 5.1924941018511035" Properties=species:S:1:pos:R:3:Z:I:1:forces:R:3 stress="-0.11175207585540584 -1.904834262249361e-35 0.0 -1.904834262249361e-35 -0.11175207585540584 0.0 0.0 0.0 -0.11175207585540584" energy=-36.0506421886 Minim_Constant_Volume=T Minim_Hydrostatic_Strain=F pbc="T T T"
Si       0.00000000       0.00000000       0.00000000       14       0.00000000      -0.00000000       0.00000000 
Si       1.29812353       1.29812353       1.29812353       14       0.00000000      -0.00000000      -0.00000000 
Si       2.59624705       2.59624705       0.00000000       14      -0.00000000       0.00000000       0.00000000 
Si       3.89437058       3.89437058       1.29812353       14       0.00000000       0.00000000       0.00000000 
Si       2.59624705       0.00000000       2.59624705       14      -0.00000000      -0.00000000       0.00000000 
Si       3.89437058       1.29812353       3.89437058       14       0.00000000      -0.00000000      -0.00000000 
Si       0.00000000       2.59624705       2.59624705       14       0.00000000       0.00000000       0.00000000 
Si       1.29812353       3.89437058       3.89437058       14      -0.00000000       0.00000000       0.00000000 
8
Lattice="5.473703674798427 0.0 0.0 0.0 5.473703674798427 0.0 0.0 0.0 5.473703674798427" Properties=species:S:1:pos:R:3:Z:I:1:forces:R:3 stress="0.014364989451372037 2.742626293072325e-34 0.0 2.742626293072325e-34 0.014364989451372037 -2.742626293072325e-34 0.0 -2.742626293072325e-34 0.014364989451372037" energy=-37.0107039032 Minim_Constant_Volume=T Minim_Hydrostatic_Strain=F pbc="T T T"
Si       0.00000000       0.00000000       0.00000000       14       0.00000000      -0.00000000       0.00000000 
Si       1.36842592       1.36842592       1.36842592       14       0.00000000      -0.00000000      -0.00000000 
Si       2.73685184       2.73685184       0.00000000       14       0.00000000      -0.00000000       0.00000000 
Si       4.10527776       4.10527776       1.36842592       14      -0.00000000       0.00000000       0.00000000 
Si       2.73685184       0.00000000       2.73685184       14       0.00000000      -0.00000000       0.00000000 
Si       4.10527776       1.36842592       4.10527776       14      -0.00000000      -0.00000000      -0.00000000 
Si       0.00000000       2.73685184       2.73685184       14      -0.00000000      -0.00000000      -0.00000000 
Si       1.36842592       4.10527776       4.10527776       14       0.00000000       0.00000000       0.00000000 
8
Lattice="5.5178483527622415 0.0 0.0 0.0 5.5178483527622415 0.0 0.0 0.0 5.5178483527622415" Properties=species:S:1:pos:R:3:Z:I:1:forces:R:3 stress="0.026897529283081638 0.0 0.0 0.0 0.026897529283081638 0.0 0.0 0.0 0.026897529283081638" energy=-36.9275906087 Minim_Constant_Volume=T Minim_Hydrostatic_Strain=F pbc="T T T"
Si       0.00000000       0.00000000       0.00000000       14      -0.00000000       0.00000000       0.00000000 
Si       1.37946209       1.37946209       1.37946209       14       0.00000000       0.00000000      -0.00000000 
Si       2.75892418       2.75892418       0.00000000       14      -0.00000000       0.00000000       0.00000000 
Si       4.13838626       4.13838626       1.37946209       14      -0.00000000      -0.00000000       0.00000000 
Si       2.75892418       0.00000000       2.75892418       14      -0.00000000       0.00000000       0.00000000 
Si       4.13838626       1.37946209       4.13838626       14      -0.00000000       0.00000000      -0.00000000 
Si       0.00000000       2.75892418       2.75892418       14      -0.00000000       0.00000000       0.00000000 
Si       1.37946209       4.13838626       4.13838626       14      -0.00000000      -0.00000000       0.00000000 
8
Lattice="5.5612977665212355 0.0 0.0 0.0 5.5612977665212355 0.0 0.0 0.0 5.5612977665212355" Properties=species:S:1:pos:R:3:Z:I:1:forces:R:3 stress="0.03777672799773915 -6.642275905858668e-35 0.0 -6.642275905858668e-35 0.03777672799773915 6.642275905858668e-35 0.0 6.642275905858668e-35 0.03777672799773915" energy=-36.7977267244 Minim_Constant_Volume=T Minim_Hydrostatic_Strain=F pbc="T T T"
Si       0.00000000       0.00000000       0.00000000       14      -0.00000000       0.00000000       0.00000000 
Si       1.39032444       1.39032444       1.39032444       14      -0.00000000      -0.00000000       0.00000000 
Si       2.78064888       2.78064888       0.00000000       14       0.00000000       0.00000000      -0.00000000 
Si       4.17097332       4.17097332       1.39032444       14       0.00000000       0.00000000      -0.00000000 
Si       2.78064888       0.00000000       2.78064888       14      -0.00000000       0.00000000       0.00000000 
Si       4.17097332       1.39032444       4.17097332       14       0.00000000      -0.00000000       0.00000000 
Si       0.00000000       2.78064888       2.78064888       14       0.00000000       0.00000000      -0.00000000 
Si       1.39032444       4.17097332       4.17097332       14       0.00000000       0.00000000      -0.00000000 
8
Lattice="5.6040786613107745 0.0 0.0 0.0 5.6040786613107745 0.0 0.0 0.0 5.6040786613107745" Properties=species:S:1:pos:R:3:Z:I:1:forces:R:3 stress="0.047206382346921906 1.3082500490327218e-34 0.0 1.3082500490327218e-34 0.047206382346921906 -1.3082500490327218e-34 0.0 -1.3082500490327218e-34 0.047206382346921906" energy=-36.6273083174 Minim_Constant_Volume=T Minim_Hydrostatic_Strain=F pbc="T T T"
Si       0.00000000       0.00000000       0.00000000       14      -0.00000000       0.00000000       0.00000000 
Si       1.40101967       1.40101967       1.40101967       14       0.00000000      -0.00000000      -0.00000000 
Si       2.80203933       2.80203933       0.00000000       14       0.00000000      -0.00000000       0.00000000 
Si       4.20305900       4.20305900       1.40101967       14       0.00000000      -0.00000000      -0.00000000 
Si       2.80203933       0.00000000       2.80203933       14       0.00000000       0.00000000       0.00000000 
Si       4.20305900       1.40101967       4.20305900       14       0.00000000       0.00000000      -0.00000000 
Si       0.00000000       2.80203933       2.80203933       14      -0.00000000      -0.00000000      -0.00000000 
Si       1.40101967       4.20305900       4.20305900       14       0.00000000      -0.00000000      -0.00000000 
8
Lattice="5.64621617328617 0.0 0.0 0.0 5.64621617328617 0.0 0.0 0.0 5.64621617328617" Properties=species:S:1:pos:R:3:Z:I:1:forces:R:3 stress="0.055363355702517235 0.0 0.0 0.0 0.055363355702517235 0.0 0.0 0.0 0.055363355702517235" energy=-36.4217715534 Minim_Constant_Volume=T Minim_Hydrostatic_Strain=F pbc="T T T"
Si       0.00000000       0.00000000       0.00000000       14       0.00000000       0.00000000      -0.00000000 
Si       1.41155404       1.41155404       1.41155404       14      -0.00000000       0.00000000      -0.00000000 
Si       2.82310809       2.82310809       0.00000000       14      -0.00000000      -0.00000000       0.00000000 
Si       4.23466213       4.23466213       1.41155404       14       0.00000000      -0.00000000      -0.00000000 
Si       2.82310809       0.00000000       2.82310809       14      -0.00000000       0.00000000      -0.00000000 
Si       4.23466213       1.41155404       4.23466213       14       0.00000000       0.00000000       0.00000000 
Si       0.00000000       2.82310809       2.82310809       14       0.00000000      -0.00000000      -0.00000000 
Si       1.41155404       4.23466213       4.23466213       14      -0.00000000      -0.00000000       0.00000000 
8
Lattice="5.68773395970313 0.0 0.0 0.0 5.68773395970313 0.0 0.0 0.0 5.68773395970313" Properties=species:S:1:pos:R:3:Z:I:1:forces:R:3 stress="0.06240148372046491 0.0 0.0 0.0 0.06240148372046491 0.0 0.0 0.0 0.06240148372046491" energy=-36.1858923908 Minim_Constant_Volume=T Minim_Hydrostatic_Strain=F pbc="T T T"
Si       0.00000000       0.00000000       0.00000000       14       0.00000000      -0.00000000       0.00000000 
Si       1.42193349       1.42193349       1.42193349       14       0.00000000      -0.00000000      -0.00000000 
Si       2.84386698       2.84386698       0.00000000       14       0.00000000       0.00000000       0.00000000 
Si       4.26580047       4.26580047       1.42193349       14       0.00000000      -0.00000000      -0.00000000 
Si       2.84386698       0.00000000       2.84386698       14      -0.00000000       0.00000000      -0.00000000 
Si       4.26580047       1.42193349       4.26580047       14       0.00000000      -0.00000000      -0.00000000 
Si       0.00000000       2.84386698       2.84386698       14      -0.00000000       0.00000000      -0.00000000 
Si       1.42193349       4.26580047       4.26580047       14      -0.00000000      -0.00000000      -0.00000000 
