66
energy=-10764.20049491 enthalpy=-10764.20060000 calculate_stress=True cut_off_energy=250.00000000 elec_energy_tol=0.00000010 fine_grid_scale=4.00000000 finite_basis_corr=automatic fix_occupancy=False max_scf_cycles=250 mix_history_length=20 mixing_scheme=pulay num_dump_cycles=0 opt_strategy=speed perc_extra_bands=200.00000000 smearing_width=0.05000000 spin_polarized=False task=GeometryOptimization xc_functional=PW91 castep_file_name=castep.castep castep_run_time=7580.40000000 virial="0.23043058      -0.00572652      -0.30462781      -0.00572652       0.23176732      -0.18083924      -0.30462781      -0.18083924       0.20298619" cutoff=-1.00000000 nneightol=1.20000000 pbc="T T T" Lattice="10.97471550      -0.01729650       0.01917210      -0.01729650      10.97529830       0.01803940       0.01917210       0.01803940      10.97578910" Properties=species:S:1:pos:R:3:Z:I:1:frac_pos:R:3:force:R:3
Si             -4.57511804     -4.57614005     -4.60912116      14     -0.41680400     -0.41691800     -0.41852200      0.01454000      0.01857000     -0.00362000
Si             -4.57242357     -4.57322159      0.88610502      14     -0.41743400     -0.41747600      0.08214800     -0.00172000      0.00449000      0.00903000
Si             -4.59042533      0.90440922     -4.59248570      14     -0.41741300      0.08243300     -0.41782600     -0.00069000      0.01112000      0.00630000
Si             -4.58048669      0.91703556      0.89318733      14     -0.41738000      0.08276200      0.08197100      0.01456000      0.01762000     -0.00816000
Si              0.90438095     -4.59058157     -4.59273150      14      0.08247800     -0.41744800     -0.41790000      0.00161000      0.00253000      0.01414000
Si              0.91784995     -4.58279004      0.89286292      14      0.08283200     -0.41755900      0.08189000      0.01322000      0.02822000     -0.00764000
Si              0.89950807      0.89812787     -4.58270466      14      0.08282200      0.08264900     -0.41780900      0.01351000      0.01997000     -0.00962000
Si              0.08561273      1.86296416      1.72495712      14      0.00779400      0.16949600      0.15686800     -0.00722000      0.02136000     -0.00039000
Si             -7.31065316     -7.31023891     -4.60701566      14     -0.66645700     -0.66642700     -0.41748400      0.01287000      0.00099000     -0.00986000
Si             -7.28244385     -7.28378954      0.84600443      14     -0.66475200     -0.66483100      0.07933300      0.01558000      0.01930000     -0.01125000
Si             -7.31449991     -1.83484705     -4.61214447      14     -0.66601900     -0.16754100     -0.41877200     -0.00088000     -0.00056000     -0.00001000
Si             -7.25293505     -1.87719743      0.86865514      14     -0.66128900     -0.17221300      0.08058100      0.01474000      0.00102000      0.00537000
Si             -1.83415955     -7.31443771     -4.61179754      14     -0.16744400     -0.66602100     -0.41879200      0.00249000     -0.01341000      0.00079000
Si             -1.87599456     -7.25338987      0.87012191      14     -0.17212100     -0.66128700      0.08066400     -0.00019000      0.01104000      0.00263000
Si             -1.83711264     -1.83670161     -4.61211357      14     -0.16692500     -0.16692200     -0.41964200      0.00799000      0.00372000      0.00249000
Si             -1.84839028     -1.84869797      0.85003766      14     -0.16882500     -0.16883600      0.07801900     -0.00791000     -0.01347000      0.00625000
Si             -4.57086862     -7.31427150     -7.34881656      14     -0.41637400     -0.66598900     -0.66772600      0.00274000     -0.00845000     -0.00111000
Si             -4.57758160     -7.31036002     -1.87275784      14     -0.41785800     -0.66645500     -0.16880100      0.01625000      0.00595000     -0.00876000
Si             -4.57268838     -1.83631460     -7.34725339      14     -0.41575200     -0.16687000     -0.66840500      0.00269000      0.00499000     -0.00488000
Si             -4.56971529     -1.83431392     -1.86924914      14     -0.41635400     -0.16750900     -0.16930400     -0.00036000      0.00330000      0.01200000
Si              0.92183114     -7.27178755     -7.28831937      14      0.08411200     -0.66133700     -0.66309600     -0.00488000      0.01746000      0.00775000
Si              0.94777698     -7.30124093     -1.88102137      14      0.08561000     -0.66482800     -0.17043600      0.01271000      0.01713000     -0.01651000
Si              0.94222135     -1.86676834     -7.31650481      14      0.08675200     -0.16885600     -0.66647800     -0.00222000     -0.01631000      0.01867000
Si              0.92146383     -1.89331789     -1.91012887      14      0.08399500     -0.17208900     -0.17389500      0.00104000     -0.00863000     -0.01205000
Si             -7.31451873     -4.57069565     -7.34926428      14     -0.66597800     -0.41640500     -0.66774100     -0.01008000      0.00512000     -0.00815000
Si             -7.31001067     -4.57783344     -1.87408218      14     -0.66644100     -0.41787600     -0.16889600      0.01057000      0.01465000     -0.00596000
Si             -7.27155752      0.92088553     -7.28898996      14     -0.66128300      0.08395300     -0.66308000      0.01195000      0.00765000      0.00561000
Si             -7.30054981      0.94664788     -1.88147765      14     -0.66478300      0.08548500     -0.17040000      0.01966000      0.01428000     -0.01627000
Si             -1.83690830     -4.57286586     -7.34742251      14     -0.16686400     -0.41581500     -0.66844600      0.00509000      0.00581000     -0.00532000
Si             -1.83469094     -4.57091751     -1.86859649      14     -0.16753500     -0.41645900     -0.16927000      0.01242000      0.00270000      0.00365000
Si             -1.86599702      0.94269588     -7.31645214      14     -0.16872600      0.08672200     -0.66644700     -0.02154000      0.00696000      0.01966000
Si             -1.89303082      0.92202756     -1.91034091      14     -0.17205400      0.08402400     -0.17388800     -0.00504000     -0.00216000     -0.02010000
Si             -3.19996453     -3.20041634     -3.24411885      14     -0.29152100     -0.29157700     -0.29458200     -0.00135000     -0.00279000      0.00788000
Si             -3.20827606     -3.20914235      2.25404333      14     -0.29315600     -0.29319800      0.20635900     -0.02218000     -0.02048000      0.00772000
Si             -3.25189908      2.30165735     -3.25474280      14     -0.29546000      0.20973400     -0.29636700     -0.01741000     -0.01537000     -0.00382000
Si             -3.22132466      2.30574359      2.25655864      14     -0.29355200      0.20928400      0.20576300     -0.00184000     -0.01975000      0.00479000
Si              2.30133244     -3.25210826     -3.25375387      14      0.20974600     -0.29549400     -0.29632900     -0.02045000     -0.01878000     -0.01119000
Si              2.30552360     -3.22212573      2.25571110      14      0.20925400     -0.29358800      0.20563400     -0.01185000     -0.01188000      0.01239000
Si              2.27212763      2.27124072     -3.21937938      14      0.20787400      0.20775200     -0.29402100     -0.00626000     -0.00496000     -0.00147000
Si              2.40233583      2.40179915      2.39687033      14      0.21886200      0.21882400      0.21763600      0.00199000     -0.00882000     -0.01183000
Si             -5.94506835     -5.94584354     -3.23900846      14     -0.54204800     -0.54212000     -0.29326700      0.00179000      0.00164000     -0.00055000
Si             -5.93191741     -5.93310574      2.25744854      14     -0.54172400     -0.54178200      0.20751200     -0.00665000     -0.00427000     -0.00606000
Si             -5.95045069     -0.46473348     -3.23221091      14     -0.54175100     -0.04271500     -0.29346900     -0.00935000     -0.00233000      0.00584000
Si             -5.93585565     -0.45213415      2.26151543      14     -0.54129500     -0.04238900      0.20706100      0.01665000      0.00152000     -0.00935000
Si             -0.46399609     -5.95186239     -3.23161325      14     -0.04262000     -0.54188100     -0.29346600     -0.00174000      0.00369000      0.00642000
Si             -0.45102992     -5.93619820      2.26223602      14     -0.04231200     -0.54127600      0.20707500      0.00609000      0.00692000     -0.00481000
Si             -0.47059251     -0.47119654     -3.22914299      14     -0.04243300     -0.04251600     -0.29406200      0.00713000      0.01389000     -0.01417000
Si             -0.53313036     -0.53359907      2.34573188      14     -0.04902900     -0.04904700      0.21388500      0.00290000     -0.00787000     -0.00831000
Si             -3.19954090     -5.94024132     -5.98284688      14     -0.29144000     -0.54080300     -0.54369700     -0.00073000     -0.01137000     -0.00614000
Si             -3.23431953     -5.90996131     -0.51006462      14     -0.29547700     -0.53887000     -0.04507000     -0.01803000     -0.00173000      0.01129000
Si             -3.22738295     -0.46154371     -5.95631434      14     -0.29319300     -0.04162400     -0.54209700     -0.01349000     -0.01289000      0.00890000
Si             -3.22167229     -0.44570113     -0.49439488      14     -0.29354100     -0.04099900     -0.04446400     -0.00605000     -0.01191000      0.00700000
Si              2.30193875     -5.92702161     -5.92984601      14      0.20984300     -0.53881500     -0.53974700     -0.01924000     -0.00131000      0.00867000
Si              2.29030082     -5.94481853     -0.47813190      14      0.20791100     -0.54125600     -0.04303600     -0.00186000     -0.01072000     -0.00250000
Si              2.28709348     -0.46458488     -5.94149107      14      0.20927800     -0.04111000     -0.54162500     -0.01338000     -0.00819000     -0.00242000
Si              2.40144122     -0.58464029     -0.59026256      14      0.21882700     -0.05283500     -0.05407400     -0.00003000      0.00963000     -0.00067000
Si             -5.93960681     -3.20073193     -5.98327308      14     -0.54071800     -0.29158900     -0.54371000     -0.01180000      0.00674000     -0.00213000
Si             -5.90956692     -3.23523258     -0.51123042      14     -0.53885800     -0.29554900     -0.04515100      0.00734000     -0.01632000      0.01303000
Si             -5.92697797      2.30183726     -5.93100211      14     -0.53878400      0.20976700     -0.53977500     -0.00319000     -0.01800000      0.01594000
Si             -5.94415342      2.28907731     -0.47833451      14     -0.54122000      0.20778400     -0.04297700     -0.00251000     -0.00463000     -0.00326000
Si             -0.46282480     -3.22775199     -5.95671243      14     -0.04168700     -0.29326700     -0.54215900     -0.00380000     -0.01244000      0.01497000
Si             -0.44564881     -3.22309927     -0.49416572      14     -0.04099200     -0.29366000     -0.04446900     -0.01034000     -0.00407000      0.00856000
Si             -0.46316382      2.28680566     -5.94142163      14     -0.04092700      0.20918500     -0.54159300     -0.00879000     -0.01167000     -0.00104000
Si             -0.58407990      2.40193515     -0.59131508      14     -0.05278100      0.21885500     -0.05414200      0.01076000      0.00108000      0.00581000
Si              0.08428247      0.08550133     -0.04994767      14      0.00770000      0.00781000     -0.00457700     -0.00686000     -0.00378000     -0.01893000
Si              1.86464242      0.08628065      1.72422250      14      0.16964200      0.00787100      0.15678400      0.02104000     -0.00174000      0.00474000
