66
energy=-10763.87057717 enthalpy=-10763.87070000 calculate_stress=True cut_off_energy=250.00000000 elec_energy_tol=0.00000010 fine_grid_scale=4.00000000 finite_basis_corr=automatic fix_occupancy=False max_scf_cycles=250 mix_history_length=20 mixing_scheme=pulay num_dump_cycles=0 opt_strategy=speed perc_extra_bands=200.00000000 smearing_width=0.05000000 spin_polarized=False task=GeometryOptimization xc_functional=PW91 castep_file_name=castep.castep castep_run_time=23458.57000000 virial="0.08265025       0.03478440       0.04388670       0.03478440       0.00454286       0.02200138       0.04388670       0.02200138       0.06326847" cutoff=-1.00000000 nneightol=1.20000000 pbc="T T T" Lattice="10.89984890       0.02167320      -0.03720670       0.02167320      10.91502710       0.02753040      -0.03720670       0.02753040      11.16409340" Properties=species:S:1:pos:R:3:Z:I:1:frac_pos:R:3:force:R:3
Si             -4.33140049     -2.34165924     -5.30216027      14     -0.39858300     -0.21254400     -0.47573400      0.01398000      0.01357000      0.02131000
Si             -4.28240770     -2.20684780      0.27819758      14     -0.39240400     -0.20146600      0.02410800     -0.01904000     -0.00040000      0.00401000
Si             -4.26193085      3.21123771     -5.28801937      14     -0.39322100      0.29618400     -0.47570400      0.01030000      0.00440000     -0.01749000
Si             -4.16640349      3.09518741      0.60177849      14     -0.38263200      0.28420000      0.05192700     -0.01230000      0.02342000      0.01502000
Si              1.17813082     -2.24400345     -5.35928559      14      0.10685800     -0.20459200     -0.47918600     -0.00378000      0.01092000     -0.00867000
Si              1.31205823     -2.50630320      0.52137027      14      0.12099400     -0.22998000      0.04767100     -0.00367000     -0.03294000     -0.00542000
Si              1.26405968      3.26850192     -5.34336059      14      0.11373800      0.30043200     -0.47898200      0.00757000     -0.00175000      0.01516000
Si              1.13854728      3.23777304      0.27890581      14      0.10395000      0.29636600      0.02459800     -0.00308000      0.00149000     -0.00108000
Si             -7.00431612     -4.98461553     -5.25230504      14     -0.64331300     -0.45420800     -0.47148800     -0.00969000      0.00739000     -0.00517000
Si             -6.91819443     -5.08696321      0.30255341      14     -0.63369200     -0.46485900      0.02613500      0.01607000     -0.00448000      0.00717000
Si             -6.98172059      0.46686077     -5.29711646      14     -0.64225100      0.04525000     -0.47673000     -0.01928000     -0.01177000      0.00317000
Si             -7.02466200      0.48813433      0.32179515      14     -0.64447400      0.04593400      0.02656300     -0.00546000      0.01205000      0.00186000
Si             -1.54356963     -4.95346361     -5.31388618      14     -0.14233700     -0.45233900     -0.47533900     -0.00526000     -0.00616000      0.00464000
Si             -1.60044557     -4.97586499      0.28361723      14     -0.14583700     -0.45564900      0.02604200      0.00616000      0.00830000     -0.01345000
Si             -1.57978644      0.47426429     -5.32786705      14     -0.14665700      0.04494700     -0.47783200     -0.00959000      0.01129000     -0.02108000
Si             -2.43926664      1.35707458      0.61963381      14     -0.22385100      0.12463800      0.05444900     -0.00594000      0.01434000      0.01806000
Si             -4.26752428     -5.00320581     -2.46195891      14     -0.39136600     -0.45704400     -0.22070200     -0.00713000     -0.00935000     -0.00699000
Si             -4.31657803     -4.91759809      3.12282964      14     -0.39417200     -0.45045700      0.27951800      0.00175000      0.00045000      0.00069000
Si             -4.29141190      0.38637781     -2.60372639      14     -0.39458700      0.03677400     -0.23462900     -0.00035000     -0.00600000      0.00670000
Si             -4.37791736      0.45747241      3.17172120      14     -0.40076800      0.04199500      0.28266100     -0.00011000      0.01382000      0.01226000
Si              1.16150210     -4.98309105     -2.51645976      14      0.10670400     -0.45618200     -0.22392600      0.02065000     -0.01142000     -0.00382000
Si              1.13468836     -4.97205998      3.08769028      14      0.10595800     -0.45643600      0.27805200     -0.00013000      0.01346000     -0.00988000
Si              1.22788851      0.62927289     -2.81663372      14      0.11167600      0.05806600     -0.25206500      0.00414000      0.00332000      0.00594000
Si              1.10145608      0.52874607      3.05918118      14      0.10189400      0.04754800      0.27424200     -0.00052000      0.00070000     -0.00904000
Si             -7.05750594     -2.23643312     -2.44475416      14     -0.64783600     -0.20305200     -0.22064200      0.01576000     -0.00167000     -0.02050000
Si             -6.96786798     -2.26017576      3.14530105      14     -0.63789600     -0.20651000      0.28011700      0.00438000     -0.00963000      0.00180000
Si             -6.91801759      3.20883137     -2.46527518      14     -0.63604100      0.29581000     -0.22367100     -0.00088000      0.02047000      0.00579000
Si             -7.06716363      3.24085786      3.15623713      14     -0.64800900      0.29749800      0.27982000     -0.01687000      0.01130000     -0.01958000
Si             -1.62758066     -2.31288137     -2.67604815      14     -0.14972000     -0.21099700     -0.23968000      0.02222000     -0.01283000      0.00304000
Si             -1.63227716     -2.15760569      3.03987375      14     -0.14842900     -0.19806500      0.27228400     -0.00851000      0.01042000     -0.00541000
Si             -1.48302347      3.25334183     -2.60811930      14     -0.13745500      0.29892600     -0.23481200     -0.00213000      0.00615000      0.01486000
Si             -1.53255962      3.29858606      3.16240304      14     -0.14024100      0.30177300      0.28205400      0.00913000     -0.02208000      0.00294000
Si             -2.93355034     -6.31133898     -3.93747796      14     -0.26919200     -0.57680200     -0.35216600     -0.01260000     -0.00035000     -0.00080000
Si             -2.93903528     -6.25776986      1.78735498      14     -0.26795200     -0.57319000      0.16061900     -0.00269000      0.00486000     -0.00966000
Si             -2.99013099     -0.96339871     -4.02755015      14     -0.27538900     -0.08680500     -0.36146300     -0.01055000     -0.00705000     -0.02578000
Si             -3.01444850     -0.74523157      1.66437222      14     -0.27591700     -0.06810200      0.14833100     -0.00712000     -0.00544000      0.00304000
Si              2.55476013     -6.32997014     -3.89777708      14      0.23435300     -0.57952200     -0.34692500      0.00959000     -0.00999000     -0.00207000
Si              2.48882939     -6.31781455      1.65420667      14      0.23000200     -0.57965400      0.15036800      0.00428000     -0.00287000      0.00272000
Si              2.56670101     -0.88789894     -3.99876374      14      0.23442200     -0.08091100     -0.35720000      0.00630000     -0.00544000      0.01610000
Si              2.55966686     -0.88868705      1.78873394      14      0.23554900     -0.08229300      0.16121000      0.00916000      0.01691000     -0.01085000
Si             -5.67376406     -3.63302706     -3.82616468      14     -0.52105100     -0.33094500     -0.34364100      0.01458000     -0.01308000      0.00125000
Si             -5.64014804     -3.59650440      1.67833944      14     -0.51628800     -0.32885200      0.14942400     -0.00426000      0.00749000     -0.00771000
Si             -5.62154517      1.83435893     -3.90986516      14     -0.51728600      0.16997400     -0.35236100     -0.01249000      0.01592000      0.00561000
Si             -5.73241156      1.85176903      1.83028552      14     -0.52570300      0.17028900      0.16177200      0.01748000      0.00992000      0.00604000
Si             -0.15427649     -3.61959738     -3.95139121      14     -0.01470200     -0.33069600     -0.35317100     -0.01157000      0.00561000      0.00553000
Si             -0.29147537     -3.66413007      1.76120731      14     -0.02553200     -0.33604500      0.15850000      0.01491000     -0.00733000      0.01176000
Si             -0.18995553      1.97741250     -4.09720448      14     -0.01904400      0.18212900     -0.36751100     -0.00002000     -0.01388000     -0.01068000
Si             -0.29147785      1.92213429      1.66391949      14     -0.02658400      0.17577800      0.14852000      0.00373000     -0.01739000     -0.00963000
Si             -2.91575536     -3.58486662     -6.69639835      14     -0.26890300     -0.32638700     -0.59990700      0.00567000     -0.02214000      0.00901000
Si             -2.91060769     -3.57855593     -1.11572438      14     -0.26672300     -0.32707400     -0.10002100     -0.01268000      0.01255000      0.01235000
Si             -2.92083824      1.85259424     -6.70589500      14     -0.27036700      0.17178400     -0.60199100     -0.00641000     -0.00661000      0.01757000
Si             -2.33902381      1.28760177     -1.66821069      14     -0.21534200      0.11877300     -0.15043700     -0.01296000      0.00534000      0.00143000
Si              2.55017270     -3.62346695     -6.71600757      14      0.23257400     -0.33091900     -0.59998100      0.00656000      0.01476000     -0.01125000
Si              2.58327458     -3.70556556     -1.10873659      14      0.23734300     -0.33971700     -0.09768400      0.00370000      0.00444000     -0.00005000
Si              2.53456134      1.84396440     -6.70451594      14      0.23014500      0.16999500     -0.60019500      0.00268000     -0.00736000      0.00029000
Si              2.52406784      1.92857005     -1.14560570      14      0.23086900      0.17648900     -0.10228100      0.00577000     -0.00317000      0.00784000
Si             -5.65847219     -6.33148653     -6.67592772      14     -0.52002700     -0.57752900     -0.59829100     -0.00363000     -0.00191000      0.00104000
Si             -5.47857096     -6.49590494     -1.03692449      14     -0.50176500     -0.59390300     -0.09308800      0.00440000     -0.00170000     -0.01143000
Si             -5.64046183     -0.93378309     -6.61351859      14     -0.51934300     -0.08302100     -0.59391800     -0.01328000      0.00576000     -0.02093000
Si             -5.65760391     -0.86091860     -1.10087849      14     -0.51924100     -0.07759100     -0.10014800     -0.00501000     -0.01348000     -0.00022000
Si             -0.16055337     -6.30577832     -6.66044019      14     -0.01561600     -0.57618300     -0.59522600      0.00469000      0.00938000     -0.01126000
Si             -0.23436834     -6.32419043     -1.13538945      14     -0.02069300     -0.57910800     -0.10034100      0.00583000      0.00695000      0.00001000
Si             -0.20571001     -0.87004440     -6.71799876      14     -0.02077100     -0.07815200     -0.60162700     -0.00479000      0.00799000      0.00525000
Si             -0.69732192     -0.40035890     -1.76310489      14     -0.06444300     -0.03615300     -0.15805200     -0.00392000     -0.00324000      0.02091000
Si             -0.28527954     -0.60160287      0.53276427      14     -0.02590000     -0.05518600      0.04777100      0.01051000     -0.01929000     -0.00542000
Si              1.66850230     -0.50363289     -0.70609423      14      0.15295400     -0.04628700     -0.06262300     -0.00427000     -0.02293000      0.01309000
