66
energy=-10763.84134982 enthalpy=-10763.84160000 calculate_stress=True cut_off_energy=250.00000000 elec_energy_tol=0.00000010 fine_grid_scale=4.00000000 finite_basis_corr=automatic fix_occupancy=False max_scf_cycles=250 mix_history_length=20 mixing_scheme=pulay num_dump_cycles=0 opt_strategy=speed perc_extra_bands=200.00000000 smearing_width=0.05000000 spin_polarized=False task=GeometryOptimization xc_functional=PW91 castep_file_name=castep.castep castep_run_time=16062.39000000 virial="0.07252858       0.03718588      -0.44891679       0.03718588       0.05336120       0.50538577      -0.44891679       0.50538577      -0.08125681" cutoff=-1.00000000 nneightol=1.20000000 pbc="T T T" Lattice="10.96179910      -0.08369220       0.00237630      -0.08369220      10.96210950      -0.00261710       0.00237630      -0.00261710      11.02102120" Properties=species:S:1:pos:R:3:Z:I:1:frac_pos:R:3:force:R:3
Si             -5.42847325     -5.42851479     -3.80941668      14     -0.49895300     -0.49909900     -0.34566100     -0.01723000      0.01093000     -0.03332000
Si             -5.42864047     -5.42953462      1.72920818      14     -0.49907700     -0.49907300      0.15689000     -0.00143000      0.00861000     -0.02242000
Si             -5.47123714      0.05172845     -3.82593424      14     -0.49903700      0.00082600     -0.34704100     -0.00645000      0.02351000     -0.00945000
Si             -5.46958945      0.05085212      1.69612638      14     -0.49899500      0.00086600      0.15400700     -0.01450000      0.01220000      0.00836000
Si              0.05230679     -5.47092638     -3.82345947      14      0.00103600     -0.49915100     -0.34704300     -0.01814000      0.01464000     -0.01224000
Si              0.05312185     -5.47186208      1.69845772      14      0.00100200     -0.49911700      0.15399200     -0.01662000      0.01105000      0.01182000
Si              0.01017396      0.01056724     -3.81721879      14      0.00101000      0.00088900     -0.34635800     -0.01169000      0.00919000     -0.00473000
Si             -0.83491337      0.85500246      2.22273388      14     -0.07561800      0.07746700      0.20171600      0.00617000     -0.00587000     -0.02865000
Si             -2.70358460     -2.70342674     -3.80978562      14     -0.24846000     -0.24859500     -0.34568900     -0.00855000      0.02228000      0.01503000
Si             -2.68439203     -2.68629687      1.67037259      14     -0.24680400     -0.24690100      0.15155700     -0.00137000      0.01981000      0.00390000
Si             -2.76398628      2.78420727     -3.82471067      14     -0.25014800      0.25199200     -0.34692400     -0.01103000      0.02113000     -0.01715000
Si             -2.89682158      2.91805615      1.73790156      14     -0.26228200      0.26423000      0.15780900     -0.00230000     -0.01258000      0.00826000
Si              2.78375123     -2.76316397     -3.82252241      14      0.25211500     -0.25022300     -0.34695300     -0.00903000      0.00273000     -0.01285000
Si              2.91793953     -2.89764072      1.73988021      14      0.26415500     -0.26227800      0.15775000     -0.01334000      0.01128000      0.01829000
Si              2.72434698      2.72523429     -3.81032470      14      0.25051800      0.25043500     -0.34572700     -0.02246000     -0.00193000      0.01706000
Si              2.70676257      2.70534301      1.67010990      14      0.24879300      0.24872600      0.15154400     -0.02506000     -0.00311000      0.00649000
Si             -5.43517187     -2.68267986     -6.55756537      14     -0.49759800     -0.24866400     -0.59495700     -0.02628000      0.00372000      0.00770000
Si             -5.42928208     -2.69285635     -1.05936214      14     -0.49717500     -0.24947000     -0.09607400     -0.00005000      0.01370000      0.00324000
Si             -5.50800866      2.78878996     -6.55861381      14     -0.50043200      0.25044000     -0.59493300      0.00320000      0.02314000      0.00610000
Si             -5.51181191      2.79628067     -1.06056012      14     -0.50088100      0.25123900     -0.09606300     -0.01654000      0.00904000      0.00268000
Si              0.02984737     -2.76117784     -6.52095039      14      0.00092700     -0.25201800     -0.59174300      0.00529000      0.02507000     -0.01494000
Si              0.03947064     -2.79056592     -1.11355500      14      0.00167900     -0.25457600     -0.10110000      0.00853000      0.00988000      0.01731000
Si             -0.01062656      2.78422120     -6.52218573      14      0.00109700      0.25385300     -0.59173500     -0.03653000     -0.01091000     -0.01514000
Si             -0.01811616      2.80971634     -1.11485112      14      0.00032600      0.25629000     -0.10109600     -0.03738000      0.02021000      0.02021000
Si             -2.68437112     -5.43336210     -6.55647614      14     -0.24855500     -0.49768900     -0.59497100     -0.01442000     -0.00569000      0.01028000
Si             -2.69211532     -5.42939294     -1.05791550      14     -0.24936600     -0.49721400     -0.09605500     -0.00591000      0.01264000     -0.00352000
Si             -2.76355428      0.03189980     -6.52218006      14     -0.25197300      0.00084500     -0.59174000      0.00109000      0.03167000     -0.01300000
Si             -2.78875174      0.03946561     -1.11475684      14     -0.25437200      0.00163400     -0.10109300     -0.02565000      0.02741000      0.01404000
Si              2.78622476     -5.50532844     -6.55506265      14      0.25048400     -0.50044400     -0.59495100      0.00374000      0.01973000      0.00523000
Si              2.79661398     -5.51190006     -1.05690338      14      0.25132000     -0.50091800     -0.09607200     -0.00928000      0.00116000      0.00312000
Si              2.78234707     -0.00878741     -6.52095617      14      0.25395800      0.00099600     -0.59173800     -0.02499000     -0.01156000     -0.01688000
Si              2.81017613     -0.01942779     -1.11386990      14      0.25638400      0.00016100     -0.10112300     -0.00039000     -0.00407000      0.01326000
Si             -4.06225724     -4.06134725     -2.43483939      14     -0.37338600     -0.37339300     -0.22093500      0.01121000     -0.00817000     -0.00267000
Si             -4.04638132     -4.04799424      3.08571104      14     -0.37203600     -0.37204500      0.27997600      0.02491000      0.00645000     -0.00705000
Si             -4.15238339      1.43137274     -2.46293114      14     -0.37778200      0.12763700     -0.22336400      0.00552000     -0.02408000      0.00461000
Si             -4.12790636      1.41028738      3.09363498      14     -0.37567200      0.12585000      0.28081400      0.01418000     -0.00884000     -0.00247000
Si              1.42915398     -4.15130055     -2.46002190      14      0.12754000     -0.37777500     -0.22332900      0.01427000     -0.01138000     -0.00210000
Si              1.41122765     -4.12859979      3.09589653      14      0.12581200     -0.37559700      0.28079200      0.00749000     -0.00848000     -0.00176000
Si              1.35572157      1.35776145     -2.41775574      14      0.12467700      0.12475900     -0.21937400      0.01166000     -0.02200000      0.01360000
Si              1.41096475      1.40969926      3.17443063      14      0.12964400      0.12965600      0.28803700      0.00185000     -0.02336000     -0.00156000
Si             -6.79619847     -6.79523392     -2.43481196      14     -0.62471100     -0.62470600     -0.22093800      0.01204000     -0.00594000     -0.00127000
Si             -6.81014383     -6.81113945      3.08515488      14     -0.62610200     -0.62604800      0.27992000     -0.00722000     -0.02689000      0.00628000
Si             -6.78970920     -1.32598559     -2.46320801      14     -0.62030900     -0.12575000     -0.22339700      0.00495000     -0.00516000      0.01108000
Si             -6.81282967     -1.30776148      3.09345978      14     -0.62251400     -0.12398400      0.28079200      0.01208000     -0.00445000      0.00104000
Si             -1.32631409     -6.78911000     -2.46003290      14     -0.12568200     -0.62033800     -0.22333300      0.01085000     -0.01066000      0.00354000
Si             -1.30608707     -6.81489815      3.09603747      14     -0.12396300     -0.62255700      0.28080000      0.01634000      0.00065000      0.00144000
Si             -1.33638374     -1.33553658     -2.41707871      14     -0.12280300     -0.12282200     -0.21931800      0.01919000     -0.00235000      0.01237000
Si             -1.39013563     -1.39021082      3.17458051      14     -0.12785400     -0.12772700      0.28804500      0.03077000     -0.00316000      0.00150000
Si             -4.05594749     -6.80125563     -5.19022591      14     -0.37466500     -0.62340600     -0.47100600      0.00033000     -0.00338000      0.00420000
Si             -4.11785315     -6.73939231      0.31387498      14     -0.38037700     -0.61768700      0.02841500      0.00821000     -0.01349000     -0.01395000
Si             -4.10515626     -1.32949378     -5.14937844      14     -0.37534400     -0.12425800     -0.46718100      0.03128000     -0.01932000      0.00364000
Si             -4.08658893     -1.31091185      0.32924737      14     -0.37374400     -0.12243200      0.02992600      0.01324000     -0.00804000     -0.00430000
Si              1.43395492     -6.83668016     -5.14727870      14      0.12616000     -0.62281300     -0.46721700      0.01905000     -0.02131000      0.00662000
Si              1.41502763     -6.85443437      0.33192075      14      0.12431400     -0.62432800      0.02994200      0.01120000     -0.01484000     -0.00444000
Si              1.39474090     -1.37353047     -5.16619403      14      0.12638800     -0.12444500     -0.46881500      0.00623000     -0.00728000      0.02074000
Si              1.72142138     -1.70097773      0.13424893      14      0.15586000     -0.15397600      0.01211100     -0.00286000     -0.00075000     -0.01296000
Si             -6.80372149     -4.05364373     -5.19155623      14     -0.62343400     -0.37465900     -0.47101400      0.02320000     -0.02504000      0.00749000
Si             -6.73954228     -4.11792323      0.31337315      14     -0.61773100     -0.38036000      0.02847700      0.00287000     -0.00665000     -0.02088000
Si             -6.83866519      1.43618330     -5.15058874      14     -0.62279900      0.12614700     -0.46717800     -0.00151000     -0.00712000      0.00717000
Si             -6.85466114      1.41493198      0.32832563      14     -0.62438000      0.12431500      0.02995500      0.01023000     -0.01624000     -0.00356000
Si             -1.33181400     -4.10240269     -5.14789336      14     -0.12426000     -0.37529500     -0.46716000      0.01138000     -0.00133000      0.00209000
Si             -1.31078823     -4.08711690      0.33024884      14     -0.12243800     -0.37376800      0.02990300      0.01347000     -0.00844000      0.00670000
Si             -1.37598118      1.39646446     -5.16703864      14     -0.12445900      0.12632800     -0.46877800      0.01434000     -0.01022000      0.01830000
Si             -1.70044706      1.72066050      0.13345149      14     -0.15393800      0.15579200      0.01217900      0.00636000      0.00412000     -0.01243000
Si              0.00986318      0.00988006      0.03650140      14      0.00090600      0.00090900      0.00331200      0.00396000     -0.00375000     -0.01019000
Si              0.85719890     -0.83693978      2.22304693      14      0.07757700     -0.07570800      0.20167500     -0.01246000      0.01185000     -0.01892000
