66
energy=-10763.94884197 enthalpy=-10763.94880000 calculate_stress=True cut_off_energy=250.00000000 elec_energy_tol=0.00000010 fine_grid_scale=4.00000000 finite_basis_corr=automatic fix_occupancy=False max_scf_cycles=250 mix_history_length=20 mixing_scheme=pulay num_dump_cycles=0 opt_strategy=speed perc_extra_bands=200.00000000 smearing_width=0.05000000 spin_polarized=False task=GeometryOptimization xc_functional=PW91 castep_file_name=castep.castep castep_run_time=15470.56000000 virial="0.09591577       0.08590374       0.07359221       0.08590374      -0.02031780       0.18578908       0.07359221       0.18578908       0.01033933" cutoff=-1.00000000 nneightol=1.20000000 pbc="T T T" Lattice="11.01289500      -0.14281660       0.08231840      -0.14281660      11.06723060      -0.12955150       0.08231840      -0.12955150      11.03588950" Properties=species:S:1:pos:R:3:Z:I:1:frac_pos:R:3:force:R:3
Si             -3.39079061     -6.07326831     -6.15185894      14     -0.31094800     -0.55934900     -0.56168800     -0.01875000      0.00200000     -0.01137000
Si             -3.42298686     -6.08173658     -0.62906978      14     -0.31754800     -0.55434000     -0.06114100     -0.00299000     -0.00003000      0.00269000
Si             -3.45503606     -0.57442179     -6.20598330      14     -0.31034500     -0.06247200     -0.56076400     -0.00330000      0.00525000     -0.03280000
Si             -3.55757037     -0.56122508     -0.80984529      14     -0.32322400     -0.05572000     -0.07162600      0.00596000     -0.00147000      0.04278000
Si              2.12493221     -6.21734742     -6.13208728      14      0.18982400     -0.56592900     -0.56370900      0.00285000      0.03919000      0.00229000
Si              2.13862491     -6.24598287     -0.60134625      14      0.18736300     -0.56268100     -0.06249300     -0.00584000      0.00146000      0.01485000
Si              2.07549758     -0.65101059     -6.15798934      14      0.19183200     -0.06290500     -0.56016600     -0.00485000     -0.00916000      0.01348000
Si              2.54776664     -1.23448491     -0.26542541      14      0.23013400     -0.10889100     -0.02704600     -0.00293000     -0.01924000      0.01173000
Si             -6.14011656     -3.32891008     -6.16106108      14     -0.55744800     -0.31451300     -0.55780900     -0.01921000      0.00902000     -0.01685000
Si             -6.09224520     -3.38701203     -0.68019610      14     -0.55680600     -0.31394100     -0.06116700     -0.02392000      0.00652000     -0.00603000
Si             -6.28707151      2.23475973     -6.29567819      14     -0.56422800      0.18804200     -0.56405700     -0.00210000     -0.00839000     -0.00221000
Si             -6.24011418      2.13821505     -0.76475462      14     -0.56374700      0.18519100     -0.06291800     -0.00835000      0.00274000      0.00360000
Si             -0.66347411     -3.41789292     -6.10549496      14     -0.06018500     -0.31612100     -0.55650200      0.00381000      0.02703000     -0.03229000
Si             -0.56080158     -3.42205949     -0.57493804      14     -0.05453600     -0.31055800     -0.05533600     -0.01222000      0.00178000     -0.01034000
Si             -0.75752589      2.14956966     -6.24429249      14     -0.06215300      0.18683400     -0.56316000     -0.01148000     -0.00947000     -0.01679000
Si             -0.96274936      2.47577480     -0.95976734      14     -0.08392000      0.22164000     -0.08374000     -0.00322000     -0.02082000     -0.01448000
Si             -3.36035521     -3.30172309     -3.36787479      14     -0.30680500     -0.30588000     -0.30647700      0.00055000     -0.03096000     -0.01163000
Si             -3.36436002     -3.43744070      2.08602631      14     -0.31094700     -0.31241200      0.18767400     -0.00130000     -0.00017000      0.00743000
Si             -3.53741991      2.21440659     -3.55672248      14     -0.31633900      0.19228600     -0.31767000     -0.00260000      0.00065000      0.01101000
Si             -3.55709523      2.21823801      2.09789133      14     -0.32187500      0.19856000      0.19482900      0.00732000     -0.01168000     -0.03988000
Si              2.08636054     -3.46251029     -3.39610255      14      0.18771200     -0.31410100     -0.31282000      0.00134000      0.00665000     -0.00783000
Si              2.31590521     -3.77385890      2.30805415      14      0.20441100     -0.33597200      0.20367200      0.02648000      0.00707000      0.00685000
Si              2.04241093      2.22070104     -3.56928741      14      0.19045200      0.19933800     -0.32250600     -0.01886000     -0.02753000      0.01647000
Si              1.99199791      1.95233380      1.96392217      14      0.18188800      0.18084600      0.17872400     -0.01599000     -0.00609000      0.02250000
Si             -6.12101338     -6.08272793     -3.39833828      14     -0.56075300     -0.56048500     -0.31033200     -0.02108000     -0.00063000     -0.00811000
Si             -6.10269166     -6.20706251      2.10227811      14     -0.56288500     -0.56591300      0.18805000      0.00858000      0.02841000     -0.00208000
Si             -6.23165990     -0.55856281     -3.54404794      14     -0.56427400     -0.06147000     -0.31765100     -0.01273000      0.01457000      0.02556000
Si             -6.07883075     -0.65305042      2.14349038      14     -0.55427900     -0.06384700      0.19761400     -0.01237000     -0.02619000     -0.01231000
Si             -0.62591584     -6.08474367     -3.44914079      14     -0.06164200     -0.55432300     -0.31858600     -0.01304000      0.00169000     -0.00906000
Si             -0.57652616     -6.23420206      2.13949276      14     -0.06104000     -0.56189300      0.18772600      0.00228000     -0.00759000     -0.00108000
Si             -0.74943440     -0.61370735     -3.49983451      14     -0.06645700     -0.06002500     -0.31734100     -0.00249000     -0.00047000     -0.00716000
Si             -0.29075173     -1.15948891      2.46493796      14     -0.02939300     -0.10254400      0.22237200      0.02982000     -0.01146000      0.02452000
Si             -2.02968388     -4.71672360     -4.74818595      14     -0.18668100     -0.43367700     -0.43394800     -0.00595000     -0.02931000     -0.00463000
Si             -1.96130397     -4.81648618      0.75699147      14     -0.18424100     -0.43682100      0.06484000      0.00600000     -0.00747000     -0.01842000
Si             -2.12340476      0.78449146     -4.85244846      14     -0.18871900      0.06332700     -0.43754600      0.00895000      0.01225000     -0.00910000
Si             -2.51319940      1.23883225      0.29186644      14     -0.22700700      0.10935200      0.02942400      0.00646000      0.01866000     -0.00541000
Si              3.48635575     -4.86072692     -4.72862249      14      0.31412000     -0.44025000     -0.43598800      0.01501000     -0.00324000      0.01279000
Si              3.60068428     -4.98140194      0.78383179      14      0.32070400     -0.44522300      0.06340700      0.00208000      0.00577000      0.00551000
Si              3.40715236      0.70825788     -4.80363092      14      0.31346000      0.06292700     -0.43687300      0.00578000     -0.00877000      0.02324000
Si              3.59233098      0.56622805      0.83677665      14      0.32636900      0.05624100      0.07404900     -0.00628000     -0.00799000     -0.04381000
Si             -4.77278094     -1.95860878     -4.79694798      14     -0.43257300     -0.18763200     -0.43364400     -0.00325000      0.00556000      0.00503000
Si             -4.73822123     -1.99163093      0.70832120      14     -0.43312700     -0.18478300      0.06524500      0.00824000      0.00372000     -0.00463000
Si             -4.91962138      3.60417896     -4.93100232      14     -0.43934400      0.31484400     -0.43984200      0.01654000     -0.00140000      0.01543000
Si             -4.88614882      3.53460630      0.62354089      14     -0.44007200      0.31444000      0.06347500      0.03068000     -0.01912000      0.00505000
Si              0.70960652     -2.01577237     -4.76575185      14      0.06526500     -0.18638300     -0.43451600      0.00921000      0.01075000      0.01928000
Si              0.99754842     -2.47216413      0.98650550      14      0.08706700     -0.22124500      0.08614400      0.00612000      0.02289000      0.01143000
Si              0.61514113      3.55209548     -4.90468952      14      0.06326000      0.31660800     -0.44118600     -0.00009000     -0.03281000      0.03228000
Si              0.59572866      3.42642943      0.60094010      14      0.05769600      0.31102100      0.05767400      0.00994000     -0.00126000      0.01039000
Si             -1.95784382     -1.94751688     -1.93744549      14     -0.17879800     -0.18034300     -0.17634200      0.01987000      0.00375000     -0.02246000
Si             -2.00771617     -2.21588639      3.59441093      14     -0.18731200     -0.19883600      0.32476500      0.00587000      0.02074000     -0.00777000
Si             -2.28065787      3.77769651     -2.28134844      14     -0.20122300      0.33638800     -0.20127100     -0.02372000     -0.00806000     -0.01632000
Si             -2.05184479      3.46613710      3.42176817      14     -0.18459000      0.31449600      0.31512700      0.00284000     -0.00178000      0.01158000
Si              3.59166015     -2.21432708     -2.07102597      14      0.32500100     -0.19813800     -0.19241300     -0.01109000      0.01628000      0.02456000
Si              3.57290779     -2.21074284      3.58289131      14      0.31954900     -0.19188600      0.32002200      0.00142000      0.00073000     -0.00650000
Si              3.39830424      3.44182762     -2.06039577      14      0.31401800      0.31287500     -0.18536900      0.00606000     -0.00235000     -0.00237000
Si              3.39504272      3.30609190      3.39423922      14      0.30994300      0.30634300      0.30884800      0.00224000      0.02668000      0.00861000
Si             -4.73290734     -4.71368652     -2.02976628      14     -0.43399600     -0.43368900     -0.18577800     -0.01129000     -0.02198000      0.00757000
Si             -4.71437140     -4.83818342      3.47125078      14     -0.43610900     -0.43913100      0.31264000      0.02249000     -0.00127000      0.00593000
Si             -4.89862038      0.79971559     -2.19931140      14     -0.44251500      0.06426400     -0.19523200      0.00141000      0.02366000      0.00135000
Si             -4.74637926      0.70488458      3.48701288      14     -0.43257300      0.06185400      0.31992300      0.01499000     -0.01038000     -0.01349000
Si              0.75400007     -4.82905410     -1.98388142      14      0.06417500     -0.43768000     -0.18538300     -0.00482000      0.01026000     -0.00213000
Si              0.80349342     -4.97827606      3.60428672      14      0.06478700     -0.44522900      0.32088700      0.01090000     -0.00365000      0.01857000
Si              0.32442649      1.16330637     -2.43951242      14      0.03243900      0.10295500     -0.22008600     -0.01172000      0.02172000     -0.01322000
Si              0.78354237      0.61860400      3.52616650      14      0.06954300      0.06053500      0.31971000      0.00227000     -0.01376000     -0.00035000
Si              0.96632969      0.32190221     -0.46934741      14      0.08845100      0.02972600     -0.04284000     -0.02180000     -0.00323000     -0.02355000
Si             -0.93137401     -0.31787901      0.49564058      14     -0.08528900     -0.02929400      0.04520400      0.01526000      0.01177000      0.01210000
