66
energy=-10762.18837860 enthalpy=-10762.18850000 calculate_stress=True cut_off_energy=250.00000000 elec_energy_tol=0.00000010 fine_grid_scale=4.00000000 finite_basis_corr=automatic fix_occupancy=False max_scf_cycles=250 mix_history_length=20 mixing_scheme=pulay num_dump_cycles=0 opt_strategy=speed perc_extra_bands=200.00000000 smearing_width=0.05000000 spin_polarized=False task=GeometryOptimization xc_functional=PW91 castep_file_name=castep.castep castep_run_time=14243.63000000 virial="-0.23740247       0.03308494      -0.07018244       0.03308494      -0.17598146       0.11607446      -0.07018244       0.11607446      -0.14718209" cutoff=-1.00000000 nneightol=1.20000000 pbc="T T T" Lattice="10.98047100      -0.02690880       0.02685970      -0.02690880      10.98566500      -0.02804750       0.02685970      -0.02804750      10.98879560" Properties=species:S:1:pos:R:3:Z:I:1:frac_pos:R:3:force:R:3
Si             -4.81443674     -6.12225361     -2.05361407      14     -0.43936600     -0.55884900     -0.18723500      0.00355000     -0.00080000     -0.00417000
Si             -4.75599648     -6.18059731      3.44673153      14     -0.43527800     -0.56287200      0.31328600     -0.02885000      0.01964000      0.02154000
Si             -4.81654970     -0.66874371     -2.08503689      14     -0.43833800     -0.06243000     -0.18883000      0.01108000      0.00946000      0.00926000
Si             -4.79677535     -0.66736629      3.45094022      14     -0.43776600     -0.06101700      0.31495600     -0.00749000      0.00506000      0.00558000
Si              0.71461489     -6.14564224     -2.05888778      14      0.06417100     -0.55974900     -0.18894800      0.00036000     -0.00350000      0.01764000
Si              0.71372075     -6.16861619      3.47827672      14      0.06285500     -0.56055700      0.31494500     -0.01113000      0.01069000      0.01458000
Si              0.71585483     -0.69749607     -2.15714376      14      0.06551800     -0.06383300     -0.19662700      0.00628000     -0.00478000     -0.00112000
Si              0.72794915     -0.70968824      3.52091055      14      0.06535600     -0.06362400      0.32008700     -0.01257000      0.01240000     -0.00196000
Si             -2.08740966     -3.47161793     -2.08862288      14     -0.19041300     -0.31696600     -0.19041200      0.02138000      0.01288000      0.00952000
Si             -2.03123438     -3.41973307      3.43987508      14     -0.18651300     -0.31094900      0.31269700     -0.01043000     -0.01167000      0.01795000
Si             -2.13078010      2.15320690     -2.13480206      14     -0.19310100      0.19503500     -0.19330100      0.02414000     -0.01862000      0.01514000
Si             -2.08820466      2.10805901      3.49208255      14     -0.19048300      0.19223900      0.31874200      0.01962000     -0.01210000     -0.01333000
Si              3.43760899     -3.41925325     -2.03280465      14      0.31276000     -0.31095700     -0.18654700      0.00976000     -0.01648000     -0.01706000
Si              3.53570718     -3.51790580      3.53848537      14      0.32043500     -0.31862400      0.32041200     -0.02292000      0.01757000     -0.02063000
Si              3.49083354      2.10854871     -2.09025888      14      0.31885000      0.19223100     -0.19050600     -0.01785000     -0.01338000      0.00611000
Si              3.43720886      2.05234869      3.43942227      14      0.31272600      0.18838500      0.31271000      0.00527000      0.00697000      0.01202000
Si             -4.78248396     -3.39849629     -4.78712268      14     -0.43524300     -0.31153500     -0.43536800     -0.02926000     -0.02116000     -0.02290000
Si             -4.79638896     -3.43044074      0.68735361      14     -0.43773200     -0.31317700      0.06282100     -0.01122000     -0.00257000     -0.00807000
Si             -4.84115847      2.10021863     -4.84605053      14     -0.43935000      0.18898000     -0.43944300      0.00375000      0.01168000      0.00685000
Si             -4.81702309      2.10367688      0.68826165      14     -0.43838000      0.19058300      0.06419100      0.01118000     -0.01078000     -0.01470000
Si              0.68708908     -3.43039837     -4.80014596      14      0.06287700     -0.31322500     -0.43777500     -0.01902000     -0.01559000     -0.00273000
Si              0.72895881     -3.49985955      0.72909869      14      0.06544700     -0.31825700      0.06537700     -0.02158000      0.01179000     -0.00647000
Si              0.68790391      2.10572532     -4.82246468      14      0.06418800      0.19071700     -0.43852300     -0.00628000     -0.01772000      0.00848000
Si              0.71550648      2.17289137      0.71607816      14      0.06548700      0.19812100      0.06551000      0.00018000     -0.00902000      0.00892000
Si             -2.05177086     -6.12195630     -4.81803810      14     -0.18715100     -0.55884800     -0.43941900     -0.01026000     -0.00616000      0.00270000
Si             -2.05675740     -6.14467117      0.71622573      14     -0.18883900     -0.55963400      0.06421100      0.00156000     -0.01406000     -0.01415000
Si             -2.08367456     -0.66797009     -4.82240383      14     -0.18884200     -0.06238600     -0.43854500     -0.00379000      0.00908000      0.01036000
Si             -2.14872054     -0.69846544      0.71880998      14     -0.19600300     -0.06389200      0.06572900      0.01749000     -0.01090000      0.01110000
Si              3.44341544     -6.17987490     -4.75963820      14      0.31328000     -0.56288400     -0.43533800      0.02297000      0.02404000     -0.02647000
Si              3.47627607     -6.16809867      0.71376394      14      0.31506000     -0.56053600      0.06275300      0.01217000      0.00493000      0.00109000
Si              3.44952444     -0.66673338     -4.79980797      14      0.31507200     -0.06103700     -0.43771700      0.01014000      0.00950000     -0.00215000
Si              3.51475764     -0.70942170      0.72813982      14      0.31977600     -0.06362700      0.06531800     -0.02371000      0.01782000     -0.00602000
Si             -3.42350609     -4.75793259     -6.18256304      14     -0.31147100     -0.43530400     -0.56297400     -0.02061000     -0.02684000      0.02923000
Si             -3.42925624     -4.79708668     -0.66722562      14     -0.31322800     -0.43759100     -0.06107000     -0.01036000     -0.01710000      0.00758000
Si             -3.45606293      0.71482008     -6.17029738      14     -0.31322100      0.06287000     -0.56058200     -0.01082000     -0.01507000      0.00797000
Si             -3.49398561      0.72876883     -0.70988625      14     -0.31788400      0.06539700     -0.06365700      0.01452000     -0.01300000      0.01781000
Si              2.07183437     -4.81611500     -6.12425000      14      0.18897400     -0.43936400     -0.55890100      0.01167000      0.00070000     -0.00546000
Si              2.10437342     -4.82020125     -0.66803846      14      0.19072500     -0.43846400     -0.06237800     -0.01303000      0.00244000     -0.00408000
Si              2.07708292      0.71559489     -6.14744773      14      0.19068800      0.06417700     -0.55973100     -0.00633000     -0.00468000     -0.00804000
Si              2.16883176      0.71875861     -0.70042857      14      0.19783500      0.06574800     -0.06405600     -0.01651000      0.00661000     -0.01149000
Si             -6.14638782     -2.02584768     -6.15103512      14     -0.55884800     -0.18720400     -0.55886700      0.00179000     -0.00715000     -0.00309000
Si             -6.14384947     -2.05733178     -0.69624452      14     -0.55983500     -0.18880500     -0.06247300     -0.00270000      0.00827000      0.01161000
Si             -6.20467755      3.47274529     -6.20989578      14     -0.56292000      0.31330000     -0.56293600      0.02962000      0.02947000      0.02606000
Si             -6.16429556      3.47607170     -0.69548805      14     -0.56046600      0.31489000     -0.06111700      0.01402000      0.01729000      0.01141000
Si             -0.69553778     -2.05771541     -6.14663220      14     -0.06243700     -0.18889100     -0.55968400      0.01448000      0.00606000     -0.01372000
Si             -0.69508825     -2.15231360     -0.69758685      14     -0.06362700     -0.19623900     -0.06382700     -0.00655000      0.00014000     -0.00893000
Si             -0.69304398      3.47740812     -6.17037280      14     -0.06097300      0.31496000     -0.56056200      0.00168000      0.01566000      0.00558000
Si             -0.70870291      3.51971205     -0.71036417      14     -0.06360200      0.32007300     -0.06367200      0.01131000     -0.01220000      0.01712000
Si             -3.41700703     -2.03229968     -3.42014994      14     -0.31088600     -0.18655100     -0.31095600     -0.01197000     -0.00944000     -0.01959000
Si             -3.47012637     -2.08904908      2.10908331      14     -0.31696400     -0.19044700      0.19221900      0.00791000      0.01749000     -0.01336000
Si             -3.51617576      3.53792419     -3.51948931      14     -0.31865600      0.32045500     -0.31868300      0.02791000     -0.02330000      0.01946000
Si             -3.41748338      3.43863335      2.05167191      14     -0.31092700      0.31273000      0.18826400     -0.01255000      0.02175000      0.01392000
Si              2.10789068     -2.08928010     -3.47397304      14      0.19227600     -0.19052100     -0.31709400     -0.00728000      0.01767000      0.01369000
Si              2.15078764     -2.13416902      2.15443911      14      0.19492300     -0.19329300      0.19508800     -0.02827000      0.03041000     -0.02618000
Si              2.05073278      3.43952152     -3.42114224      14      0.18828900      0.31275900     -0.31099200      0.01760000      0.01115000     -0.01228000
Si              2.10666658      3.49160411      2.10758538      14      0.19216700      0.31879400      0.19213800     -0.00353000     -0.01423000     -0.01554000
Si             -6.17743072     -4.75821832     -3.42676578      14     -0.56288800     -0.43530400     -0.31157700      0.02754000     -0.02513000     -0.02214000
Si             -6.11908869     -4.81651856      2.07386517      14     -0.55880900     -0.43932300      0.18897000     -0.00697000     -0.00224000      0.00528000
Si             -6.16313141      0.71429028     -3.45853761      14     -0.56036100      0.06284800     -0.31320300      0.00482000     -0.01168000     -0.01069000
Si             -6.14382906      0.71553719      2.07737276      14     -0.55983200      0.06424900      0.19057700     -0.01229000     -0.01410000     -0.00991000
Si             -0.66659701     -4.79839367     -3.43148076      14     -0.06101400     -0.43773600     -0.31323900      0.00735000      0.00056000     -0.01177000
Si             -0.66817082     -4.82098361      2.10652722      14     -0.06239200     -0.43850900      0.19073100      0.01469000      0.01605000     -0.01623000
Si             -0.70849144      0.72870639     -3.50162642      14     -0.06358400      0.06536400     -0.31833200      0.01646000     -0.00725000      0.00036000
Si             -0.69569721      0.71609908      2.17484829      14     -0.06368200      0.06553500      0.19823800     -0.00227000      0.00886000      0.00438000
Si             -0.69340199      0.71385823     -0.70065259      14     -0.06283500      0.06466500     -0.06344200      0.00795000      0.00394000     -0.00500000
Si              0.71495959     -0.69420098      0.71716009      14      0.06479900     -0.06286700      0.06494400     -0.00377000     -0.00531000      0.00914000
