66
energy=-10764.00517355 enthalpy=-10764.00530000 calculate_stress=True cut_off_energy=250.00000000 elec_energy_tol=0.00000010 fine_grid_scale=4.00000000 finite_basis_corr=automatic fix_occupancy=False max_scf_cycles=250 mix_history_length=20 mixing_scheme=pulay num_dump_cycles=0 opt_strategy=speed perc_extra_bands=200.00000000 smearing_width=0.05000000 spin_polarized=False task=GeometryOptimization xc_functional=PW91 castep_file_name=castep.castep castep_run_time=15086.93000000 virial="-0.07130740       0.03496676      -0.05355595       0.03496676      -0.05121031      -0.11751647      -0.05355595      -0.11751647       0.01554823" cutoff=-1.00000000 nneightol=1.20000000 pbc="T T T" Lattice="10.95566800      -0.06577690      -0.00962500      -0.06577690      10.95555040      -0.00923030      -0.00962500      -0.00923030      11.18295570" Properties=species:S:1:pos:R:3:Z:I:1:frac_pos:R:3:force:R:3
Si             -2.69480792     -2.40834145     -6.12594127      14     -0.24778700     -0.22177800     -0.54818900      0.00000000     -0.00039000     -0.01673000
Si             -2.67393906     -2.38927135     -0.56210569      14     -0.24543200     -0.21960400     -0.05065700     -0.00312000     -0.00467000     -0.00531000
Si             -2.68669811      3.14142452     -6.10261806      14     -0.24400300      0.28481800     -0.54568200      0.00055000     -0.00165000      0.00930000
Si             -2.73407080      3.22289893     -0.27422029      14     -0.24782200      0.29267100     -0.02449300     -0.00401000     -0.00373000      0.01510000
Si              2.85542435     -2.40068304     -6.10241391      14      0.25884600     -0.21803500     -0.54564600     -0.00137000      0.00342000      0.00835000
Si              2.93557962     -2.44650615     -0.27425574      14      0.26659800     -0.22173200     -0.02447800     -0.00376000     -0.00239000      0.01665000
Si              2.87430877      3.16092382     -6.15503123      14      0.26361400      0.28964200     -0.54992800      0.01759000      0.01439000     -0.01009000
Si              2.73510887      3.02152764     -0.51547974      14      0.25127700      0.27726900     -0.04565000      0.00713000      0.00324000      0.00451000
Si             -5.34697939     -5.06006184     -6.01857832      14     -0.49132300     -0.46527600     -0.53899900     -0.00189000     -0.00400000     -0.00433000
Si             -5.37364870     -5.08643615     -0.47743067      14     -0.49333400     -0.46727800     -0.04350300      0.00339000      0.00161000     -0.00889000
Si             -5.44090541      0.40610570     -6.06253837      14     -0.49690400      0.03362800     -0.54252300      0.01137000      0.00113000     -0.00082000
Si             -5.39239843      0.43752857     -0.45551562      14     -0.49201600      0.03694800     -0.04112600     -0.00075000     -0.00560000      0.00931000
Si              0.11990764     -5.15428805     -6.06309567      14      0.00764100     -0.47088400     -0.54255500      0.00144000      0.00894000     -0.00072000
Si              0.15055438     -5.10594192     -0.45591493      14      0.01090800     -0.46602900     -0.04114400     -0.00022000     -0.00152000      0.00858000
Si              0.08150556      0.36801958     -6.11988975      14      0.00715800      0.03317400     -0.54721800     -0.00674000     -0.00710000     -0.00660000
Si             -1.05542934      1.58711820     -0.40494464      14     -0.09550200      0.14426500     -0.03617400     -0.00485000     -0.00109000     -0.00777000
Si             -2.59348455     -5.10426335     -3.26781252      14     -0.23979000     -0.46759300     -0.29280600      0.01075000      0.00038000      0.00743000
Si             -2.63434138     -5.07043939      2.34984385      14     -0.24305700     -0.46410200      0.20953500      0.00159000     -0.00197000      0.00563000
Si             -2.70347658      0.30168180     -3.45707435      14     -0.24688200      0.02579400     -0.30932900      0.01298000      0.00602000     -0.00209000
Si             -2.94073167      0.56262798      2.52514919      14     -0.26792300      0.04993700      0.22561400      0.00034000      0.01508000     -0.00110000
Si              2.84813200     -5.11384215     -3.25789604      14      0.25691800     -0.46548400     -0.29149000     -0.00763000      0.00054000     -0.00187000
Si              2.92038887     -5.23642138      2.35561057      14      0.26389000     -0.47620800      0.21047700      0.00404000      0.00332000      0.00247000
Si              2.87008144      0.46148138     -3.47876383      14      0.26196000      0.04343400     -0.31081600     -0.00709000     -0.00396000      0.00302000
Si              2.79567041      0.37845762      2.28928641      14      0.25557800      0.03625200      0.20496200     -0.00515000     -0.01070000      0.00335000
Si             -5.39004437     -2.30599282     -3.26664029      14     -0.49352700     -0.21369600     -0.29271000      0.00061000      0.00520000      0.00660000
Si             -5.35694563     -2.34803805      2.34971784      14     -0.49008500     -0.21709000      0.20951500     -0.00025000      0.00053000      0.00586000
Si             -5.40061355      3.13465283     -3.25807018      14     -0.49150900      0.28292800     -0.29153200      0.00182000     -0.01010000     -0.00108000
Si             -5.52321899      3.20739042      2.35591270      14     -0.50221700      0.28992600      0.21047700      0.00408000      0.00462000      0.00353000
Si              0.01522789     -2.41699254     -3.45784269      14     -0.00020800     -0.22088000     -0.30938900      0.00558000      0.00879000     -0.00034000
Si              0.27524566     -2.65273720      2.52463095      14      0.02387000     -0.24180300      0.22557800      0.01730000     -0.00399000     -0.00053000
Si              0.17525788      3.15682098     -3.47884671      14      0.01745300      0.28799100     -0.31083200     -0.00340000     -0.00688000      0.00304000
Si              0.09178425      3.08165243      2.28833261      14      0.01024800      0.28152100      0.20486800     -0.01026000     -0.00639000      0.00515000
Si             -6.71080087     -6.42399606     -4.63099731      14     -0.61645100     -0.59042000     -0.41513000     -0.00045000      0.00073000     -0.00142000
Si             -6.77049790     -6.48356351      0.89716837      14     -0.62149600     -0.59547100      0.07920000      0.00316000      0.00383000     -0.00125000
Si             -6.75956379     -0.97815523     -4.69217939      14     -0.61792200     -0.09334800     -0.42019200      0.00194000     -0.00036000     -0.00424000
Si             -6.67860064     -0.94918865      1.01275694      14     -0.61006500     -0.09022700      0.08996300      0.00039000      0.00011000     -0.01067000
Si             -1.26447989     -6.47323386     -4.69302475      14     -0.11934100     -0.59193400     -0.42025000     -0.00186000      0.00308000     -0.00308000
Si             -1.23582285     -6.39225597      1.01204790      14     -0.11623000     -0.58409400      0.08991700     -0.00248000      0.00374000     -0.00730000
Si             -1.35441924     -1.06773421     -4.83381469      14     -0.12459900     -0.09857300     -0.43243700      0.00792000      0.00903000      0.00748000
Si             -2.05378779     -0.20119254      0.57798503      14     -0.18753500     -0.01944700      0.05150700     -0.00556000      0.00915000      0.00480000
Si             -3.99571403     -3.70881678     -4.62088105      14     -0.36712800     -0.34108600     -0.41380500     -0.00292000     -0.00155000     -0.01472000
Si             -3.99607022     -3.70990266      0.93632534      14     -0.36672200     -0.34076400      0.08313100     -0.00779000     -0.00672000      0.00544000
Si             -4.06070492      1.77973736     -4.70885697      14     -0.37005900      0.15987400     -0.42126100      0.00298000      0.00096000     -0.00315000
Si             -4.18977716      1.89595008      1.02487523      14     -0.38132400      0.17084600      0.09145900      0.00242000     -0.00906000      0.00179000
Si              1.49372751     -3.77445058     -4.70911196      14      0.13390700     -0.34407500     -0.42126600     -0.00241000      0.00299000     -0.00275000
Si              1.60901324     -3.90285471      1.02468999      14      0.14481300     -0.35529800      0.09146100     -0.01374000      0.00612000      0.00134000
Si              1.53392205      1.82038749     -4.86814840      14      0.14063000      0.16663900     -0.43506000     -0.00989000     -0.01014000      0.00827000
Si              1.29767072      1.58335698      0.77645857      14      0.11938100      0.14530100      0.06965500      0.00799000      0.00646000      0.00507000
Si             -6.70858167     -3.72497978     -7.45235002      14     -0.61499200     -0.34426300     -0.66721600     -0.00714000      0.00125000     -0.00253000
Si             -6.75344642     -3.66116362     -1.85486719      14     -0.61861000     -0.33803800     -0.16667700     -0.00931000     -0.00567000     -0.00387000
Si             -6.78779436      1.79001293     -7.46845185      14     -0.61920100      0.15910800     -0.66824400     -0.00252000      0.00523000     -0.00878000
Si             -6.79497519      1.75995043     -1.88798790      14     -0.61943200      0.15678300     -0.16923100     -0.00119000      0.00320000     -0.00132000
Si             -1.28771483     -3.80378910     -7.39198854      14     -0.12021200     -0.34848100     -0.66139600      0.00194000      0.00074000     -0.00661000
Si             -1.20887269     -3.73176321     -1.88947568      14     -0.11254100     -0.34144600     -0.16933900      0.00298000      0.00939000      0.00374000
Si             -1.28820324      1.78226502     -7.47044206      14     -0.11720100      0.16141500     -0.66798800     -0.00436000     -0.00161000      0.01213000
Si             -0.73444765      1.21283745     -2.60906830      14     -0.06658200      0.11010900     -0.23327400     -0.00825000     -0.00611000     -0.00831000
Si             -4.01141534     -6.42187818     -7.45218961      14     -0.37027200     -0.58896100     -0.66719300      0.00155000     -0.00830000     -0.00223000
Si             -3.94856230     -6.46658384     -1.85511254      14     -0.36411700     -0.59258300     -0.16669000     -0.00781000     -0.00807000     -0.00471000
Si             -4.09058572     -1.00157979     -7.39184290      14     -0.37452300     -0.09422800     -0.66139200      0.00029000      0.00278000     -0.00599000
Si             -4.01663028     -0.92238316     -1.88769909      14     -0.36729400     -0.08654100     -0.16918900      0.00689000      0.00644000      0.00579000
Si              1.50342336     -6.50189958     -7.46922898      14      0.13307900     -0.59324400     -0.66828700      0.00319000      0.00040000     -0.00901000
Si              1.47375286     -6.50860275     -1.88800452      14      0.13080800     -0.59344900     -0.16920600     -0.00043000      0.00145000     -0.00215000
Si              1.49611026     -1.00193271     -7.46991560      14      0.13542600     -0.09120400     -0.66793200     -0.00133000     -0.00343000      0.01129000
Si              0.92626788     -0.44862341     -2.60867980      14      0.08409800     -0.04064100     -0.23323400     -0.00505000     -0.00467000     -0.01173000
Si              1.29910480     -0.76762059     -0.40438016      14      0.11813000     -0.06938800     -0.03611600     -0.00086000     -0.00831000     -0.00311000
Si             -0.49016316     -1.76680394      0.57777417      14     -0.04566500     -0.16150100      0.05149300      0.01165000     -0.00417000      0.00215000
