8
Lattice="5.428835233189813 0.0 0.0 0.0 5.428835233189813 0.0 0.0 0.0 5.428835233189813" Properties=species:S:1:pos:R:3:Z:I:1:forces:R:3 stress="-0.0006500874288882075 3.485185446248242e-35 0.0 3.485185446248242e-35 -0.0006500874288882073 -3.485185446248242e-35 0.0 -3.485185446248242e-35 -0.0006500874288882075" energy=-36.8993318472 Minim_Constant_Volume=T Minim_Hydrostatic_Strain=F pbc="T T T"
Si       0.00000000       0.00000000       0.00000000       14      -0.00000000      -0.00000000      -0.00000000 
Si       1.35720881       1.35720881       1.35720881       14       0.00000000       0.00000000       0.00000000 
Si       2.71441762       2.71441762       0.00000000       14       0.00000000      -0.00000000      -0.00000000 
Si       4.07162642       4.07162642       1.35720881       14      -0.00000000       0.00000000       0.00000000 
Si       2.71441762       0.00000000       2.71441762       14       0.00000000       0.00000000      -0.00000000 
Si       4.07162642       1.35720881       4.07162642       14      -0.00000000      -0.00000000       0.00000000 
Si       0.00000000       2.71441762       2.71441762       14      -0.00000000       0.00000000       0.00000000 
Si       1.35720881       4.07162642       4.07162642       14       0.00000000       0.00000000       0.00000000 
8
Lattice="5.383212612087283 0.0 0.0 0.0 5.383212612087283 0.0 0.0 0.0 5.383212612087283" Properties=species:S:1:pos:R:3:Z:I:1:forces:R:3 stress="-0.014114273139973186 1.4178038108200932e-34 0.0 1.4178038108200932e-34 -0.014114273139973186 -1.4178038108200932e-34 0.0 -1.4178038108200932e-34 -0.014114273139973186" energy=-36.869349987 Minim_Constant_Volume=T Minim_Hydrostatic_Strain=F pbc="T T T"
Si       0.00000000       0.00000000       0.00000000       14       0.00000000      -0.00000000       0.00000000 
Si       1.34580315       1.34580315       1.34580315       14       0.00000000       0.00000000       0.00000000 
Si       2.69160631       2.69160631       0.00000000       14      -0.00000000      -0.00000000      -0.00000000 
Si       4.03740946       4.03740946       1.34580315       14       0.00000000      -0.00000000       0.00000000 
Si       2.69160631       0.00000000       2.69160631       14      -0.00000000      -0.00000000       0.00000000 
Si       4.03740946       1.34580315       4.03740946       14      -0.00000000       0.00000000       0.00000000 
Si       0.00000000       2.69160631       2.69160631       14       0.00000000      -0.00000000       0.00000000 
Si       1.34580315       4.03740946       4.03740946       14      -0.00000000       0.00000000       0.00000000 
8
Lattice="5.336803297443889 0.0 0.0 0.0 5.336803297443889 0.0 0.0 0.0 5.336803297443889" Properties=species:S:1:pos:R:3:Z:I:1:forces:R:3 stress="-0.02666462179353731 -1.4425697232072601e-34 0.0 -1.4425697232072601e-34 -0.02666462179353731 1.4425697232072601e-34 0.0 1.4425697232072601e-34 -0.02666462179353731" energy=-36.7875036628 Minim_Constant_Volume=T Minim_Hydrostatic_Strain=F pbc="T T T"
Si       0.00000000       0.00000000       0.00000000       14       0.00000000       0.00000000      -0.00000000 
Si       1.33420082       1.33420082       1.33420082       14      -0.00000000      -0.00000000      -0.00000000 
Si       2.66840165       2.66840165       0.00000000       14       0.00000000      -0.00000000      -0.00000000 
Si       4.00260247       4.00260247       1.33420082       14      -0.00000000      -0.00000000       0.00000000 
Si       2.66840165       0.00000000       2.66840165       14       0.00000000       0.00000000       0.00000000 
Si       4.00260247       1.33420082       4.00260247       14       0.00000000      -0.00000000       0.00000000 
Si       0.00000000       2.66840165       2.66840165       14      -0.00000000      -0.00000000      -0.00000000 
Si       1.33420082       4.00260247       4.00260247       14       0.00000000      -0.00000000       0.00000000 
8
Lattice="5.289572472694207 0.0 0.0 0.0 5.289572472694207 0.0 0.0 0.0 5.289572472694207" Properties=species:S:1:pos:R:3:Z:I:1:forces:R:3 stress="-0.03827488704725213 1.4340295633682728e-37 0.0 1.4340295633682728e-37 -0.03827488704725213 -9.858953248156876e-38 0.0 -9.858953248156876e-38 -0.03827488704725213" energy=-36.6572731564 Minim_Constant_Volume=T Minim_Hydrostatic_Strain=F pbc="T T T"
Si       0.00000000       0.00000000       0.00000000       14       0.00000000      -0.00000000       0.00000000 
Si       1.32239312       1.32239312       1.32239312       14       0.00000000       0.00000000      -0.00000000 
Si       2.64478624       2.64478624       0.00000000       14       0.00000000      -0.00000000       0.00000000 
Si       3.96717935       3.96717935       1.32239312       14      -0.00000000      -0.00000000      -0.00000000 
Si       2.64478624       0.00000000       2.64478624       14      -0.00000000       0.00000000      -0.00000000 
Si       3.96717935       1.32239312       3.96717935       14       0.00000000       0.00000000       0.00000000 
Si       0.00000000       2.64478624       2.64478624       14       0.00000000      -0.00000000       0.00000000 
Si       1.32239312       3.96717935       3.96717935       14       0.00000000      -0.00000000      -0.00000000 
8
Lattice="5.241482788417793 0.0 0.0 0.0 5.241482788417793 0.0 0.0 0.0 5.241482788417793" Properties=species:S:1:pos:R:3:Z:I:1:forces:R:3 stress="-0.04869182655072559 3.7387883908163467e-35 0.0 3.7387883908163467e-35 -0.04869182655072559 -3.7387883908163467e-35 0.0 -3.7387883908163467e-35 -0.04869182655072559" energy=-36.4829083098 Minim_Constant_Volume=T Minim_Hydrostatic_Strain=F pbc="T T T"
Si       0.00000000       0.00000000       0.00000000       14       0.00000000      -0.00000000       0.00000000 
Si       1.31037070       1.31037070       1.31037070       14       0.00000000      -0.00000000       0.00000000 
Si       2.62074139       2.62074139       0.00000000       14       0.00000000       0.00000000       0.00000000 
Si       3.93111209       3.93111209       1.31037070       14       0.00000000       0.00000000      -0.00000000 
Si       2.62074139       0.00000000       2.62074139       14       0.00000000       0.00000000      -0.00000000 
Si       3.93111209       1.31037070       3.93111209       14       0.00000000      -0.00000000      -0.00000000 
Si       0.00000000       2.62074139       2.62074139       14       0.00000000       0.00000000       0.00000000 
Si       1.31037070       3.93111209       3.93111209       14       0.00000000       0.00000000      -0.00000000 
8
Lattice="5.1924941018511035 0.0 0.0 0.0 5.1924941018511035 0.0 0.0 0.0 5.1924941018511035" Properties=species:S:1:pos:R:3:Z:I:1:forces:R:3 stress="-0.057725800867360365 -5.714502786748084e-35 0.0 -5.714502786748084e-35 -0.057725800867360365 5.714502786748084e-35 0.0 5.714502786748084e-35 -0.057725800867360365" energy=-36.2695811577 Minim_Constant_Volume=T Minim_Hydrostatic_Strain=F pbc="T T T"
Si       0.00000000       0.00000000       0.00000000       14       0.00000000      -0.00000000       0.00000000 
Si       1.29812353       1.29812353       1.29812353       14       0.00000000       0.00000000       0.00000000 
Si       2.59624705       2.59624705       0.00000000       14      -0.00000000      -0.00000000      -0.00000000 
Si       3.89437058       3.89437058       1.29812353       14      -0.00000000      -0.00000000      -0.00000000 
Si       2.59624705       0.00000000       2.59624705       14      -0.00000000      -0.00000000       0.00000000 
Si       3.89437058       1.29812353       3.89437058       14       0.00000000       0.00000000       0.00000000 
Si       0.00000000       2.59624705       2.59624705       14       0.00000000       0.00000000      -0.00000000 
Si       1.29812353       3.89437058       3.89437058       14      -0.00000000      -0.00000000       0.00000000 
8
Lattice="5.473703674798427 0.0 0.0 0.0 5.473703674798427 0.0 0.0 0.0 5.473703674798427" Properties=species:S:1:pos:R:3:Z:I:1:forces:R:3 stress="0.015445460860831081 -3.428282866340406e-35 0.0 -3.428282866340406e-35 0.015445460860831081 3.428282866340406e-35 0.0 3.428282866340406e-35 0.015445460860831081" energy=-36.8689909151 Minim_Constant_Volume=T Minim_Hydrostatic_Strain=F pbc="T T T"
Si       0.00000000       0.00000000       0.00000000       14       0.00000000       0.00000000       0.00000000 
Si       1.36842592       1.36842592       1.36842592       14       0.00000000      -0.00000000      -0.00000000 
Si       2.73685184       2.73685184       0.00000000       14      -0.00000000       0.00000000      -0.00000000 
Si       4.10527776       4.10527776       1.36842592       14      -0.00000000       0.00000000      -0.00000000 
Si       2.73685184       0.00000000       2.73685184       14      -0.00000000       0.00000000       0.00000000 
Si       4.10527776       1.36842592       4.10527776       14      -0.00000000      -0.00000000      -0.00000000 
Si       0.00000000       2.73685184       2.73685184       14      -0.00000000       0.00000000      -0.00000000 
Si       1.36842592       4.10527776       4.10527776       14       0.00000000       0.00000000      -0.00000000 
8
Lattice="5.5178483527622415 0.0 0.0 0.0 5.5178483527622415 0.0 0.0 0.0 5.5178483527622415" Properties=species:S:1:pos:R:3:Z:I:1:forces:R:3 stress="0.029392555944069344 -1.0120942258259604e-34 0.0 -1.0120942258259604e-34 0.029392555944069344 1.0120942258259604e-34 0.0 1.0120942258259604e-34 0.029392555944069344" energy=-36.7786321028 Minim_Constant_Volume=T Minim_Hydrostatic_Strain=F pbc="T T T"
Si       0.00000000       0.00000000       0.00000000       14       0.00000000       0.00000000      -0.00000000 
Si       1.37946209       1.37946209       1.37946209       14       0.00000000       0.00000000      -0.00000000 
Si       2.75892418       2.75892418       0.00000000       14       0.00000000      -0.00000000       0.00000000 
Si       4.13838626       4.13838626       1.37946209       14      -0.00000000       0.00000000       0.00000000 
Si       2.75892418       0.00000000       2.75892418       14       0.00000000       0.00000000      -0.00000000 
Si       4.13838626       1.37946209       4.13838626       14       0.00000000       0.00000000      -0.00000000 
Si       0.00000000       2.75892418       2.75892418       14       0.00000000      -0.00000000       0.00000000 
Si       1.37946209       4.13838626       4.13838626       14       0.00000000       0.00000000       0.00000000 
8
Lattice="5.5612977665212355 0.0 0.0 0.0 5.5612977665212355 0.0 0.0 0.0 5.5612977665212355" Properties=species:S:1:pos:R:3:Z:I:1:forces:R:3 stress="0.041596483892389347 0.0 0.0 0.0 0.041596483892389347 0.0 0.0 0.0 0.041596483892389347" energy=-36.6361653063 Minim_Constant_Volume=T Minim_Hydrostatic_Strain=F pbc="T T T"
Si       0.00000000       0.00000000       0.00000000       14       0.00000000       0.00000000      -0.00000000 
Si       1.39032444       1.39032444       1.39032444       14       0.00000000       0.00000000       0.00000000 
Si       2.78064888       2.78064888       0.00000000       14       0.00000000       0.00000000       0.00000000 
Si       4.17097332       4.17097332       1.39032444       14       0.00000000      -0.00000000      -0.00000000 
Si       2.78064888       0.00000000       2.78064888       14      -0.00000000       0.00000000       0.00000000 
Si       4.17097332       1.39032444       4.17097332       14       0.00000000       0.00000000       0.00000000 
Si       0.00000000       2.78064888       2.78064888       14      -0.00000000       0.00000000      -0.00000000 
Si       1.39032444       4.17097332       4.17097332       14       0.00000000      -0.00000000      -0.00000000 
8
Lattice="5.6040786613107745 0.0 0.0 0.0 5.6040786613107745 0.0 0.0 0.0 5.6040786613107745" Properties=species:S:1:pos:R:3:Z:I:1:forces:R:3 stress="0.05239521996329055 1.6353125612909022e-35 0.0 1.6353125612909022e-35 0.05239521996329055 -1.6353125612909022e-35 0.0 -1.6353125612909022e-35 0.05239521996329055" energy=-36.447733306 Minim_Constant_Volume=T Minim_Hydrostatic_Strain=F pbc="T T T"
Si       0.00000000       0.00000000       0.00000000       14       0.00000000       0.00000000       0.00000000 
Si       1.40101967       1.40101967       1.40101967       14       0.00000000      -0.00000000      -0.00000000 
Si       2.80203933       2.80203933       0.00000000       14      -0.00000000       0.00000000      -0.00000000 
Si       4.20305900       4.20305900       1.40101967       14       0.00000000       0.00000000       0.00000000 
Si       2.80203933       0.00000000       2.80203933       14       0.00000000       0.00000000       0.00000000 
Si       4.20305900       1.40101967       4.20305900       14       0.00000000       0.00000000       0.00000000 
Si       0.00000000       2.80203933       2.80203933       14       0.00000000       0.00000000      -0.00000000 
Si       1.40101967       4.20305900       4.20305900       14       0.00000000      -0.00000000      -0.00000000 
8
Lattice="5.64621617328617 0.0 0.0 0.0 5.64621617328617 0.0 0.0 0.0 5.64621617328617" Properties=species:S:1:pos:R:3:Z:I:1:forces:R:3 stress="0.06190356973071679 0.0 0.0 0.0 0.06190356973071679 0.0 0.0 0.0 0.06190356973071679" energy=-36.2187236001 Minim_Constant_Volume=T Minim_Hydrostatic_Strain=F pbc="T T T"
Si       0.00000000       0.00000000       0.00000000       14       0.00000000      -0.00000000       0.00000000 
Si       1.41155404       1.41155404       1.41155404       14      -0.00000000      -0.00000000      -0.00000000 
Si       2.82310809       2.82310809       0.00000000       14      -0.00000000       0.00000000      -0.00000000 
Si       4.23466213       4.23466213       1.41155404       14       0.00000000      -0.00000000       0.00000000 
Si       2.82310809       0.00000000       2.82310809       14      -0.00000000      -0.00000000       0.00000000 
Si       4.23466213       1.41155404       4.23466213       14       0.00000000      -0.00000000      -0.00000000 
Si       0.00000000       2.82310809       2.82310809       14       0.00000000       0.00000000      -0.00000000 
Si       1.41155404       4.23466213       4.23466213       14      -0.00000000       0.00000000       0.00000000 
8
Lattice="5.68773395970313 0.0 0.0 0.0 5.68773395970313 0.0 0.0 0.0 5.68773395970313" Properties=species:S:1:pos:R:3:Z:I:1:forces:R:3 stress="0.0702259375932954 0.0 0.0 0.0 0.0702259375932954 0.0 0.0 0.0 0.0702259375932954" energy=-35.954085643 Minim_Constant_Volume=T Minim_Hydrostatic_Strain=F pbc="T T T"
Si       0.00000000       0.00000000       0.00000000       14      -0.00000000       0.00000000      -0.00000000 
Si       1.42193349       1.42193349       1.42193349       14       0.00000000       0.00000000       0.00000000 
Si       2.84386698       2.84386698       0.00000000       14      -0.00000000       0.00000000       0.00000000 
Si       4.26580047       4.26580047       1.42193349       14       0.00000000       0.00000000       0.00000000 
Si       2.84386698       0.00000000       2.84386698       14      -0.00000000       0.00000000      -0.00000000 
Si       4.26580047       1.42193349       4.26580047       14       0.00000000       0.00000000       0.00000000 
Si       0.00000000       2.84386698       2.84386698       14      -0.00000000       0.00000000       0.00000000 
Si       1.42193349       4.26580047       4.26580047       14       0.00000000       0.00000000       0.00000000 
